
     Program PWSCF v.6.7MaX starts on 19Aug2025 at 14:36:38 

     This program is part of the open-source Quantum ESPRESSO suite
     for quantum simulation of materials; please cite
         "P. Giannozzi et al., J. Phys.:Condens. Matter 21 395502 (2009);
         "P. Giannozzi et al., J. Phys.:Condens. Matter 29 465901 (2017);
          URL http://www.quantum-espresso.org", 
     in publications or presentations arising from this work. More details at
     http://www.quantum-espresso.org/quote

     Parallel version (MPI), running on    64 processors

     MPI processes distributed on     2 nodes
     R & G space division:  proc/nbgrp/npool/nimage =      64
     Reading input from mo2c-nacl.in

     Current dimensions of program PWSCF are:
     Max number of different atomic species (ntypx) = 10
     Max number of k-points (npk) =  40000
     Max angular momentum in pseudopotentials (lmaxx) =  3
     file Mo.pbe-spn-kjpaw.UPF: wavefunction(s)  4D renormalized
     file C.pbe-n-kjpaw.UPF: wavefunction(s)  2P renormalized
     Message from routine iosys_1drism:
     default density from MOL file(H2O.spc.MOL) is used
     Message from routine setup:
     At least one non s.o. pseudo

     Subspace diagonalization in iterative solution of the eigenvalue problem:
     a serial algorithm will be used


     Molecule # 1 for H2O read from file:
     /home/k0171/k017129/qe-6.7-rism/pseudo/SSSP_1.3.0_PBE_efficiency/H2O.spc.MOL
     Density:
         0.15050996E+02 cell^-1
         0.49533751E-02 bohr^-3
         0.55506881E+02 mol/L
         0.99997200E+00 g/cm^3
     Permittivity:
        78.355300
     Number of atoms:   3
     Atoms:
       #  atom      X (angs)      Y (angs)      Z (angs)      Q (e)         E (kcal/mol)  S (angs)
       1  O/h2o     0.00000000    0.00000000    0.00000000   -0.82000000    0.15540000    3.16600000
       2  H/h2o     0.81649000    0.57736000    0.00000000    0.41000000    0.04600000    1.00000000
       3  H/h2o    -0.81649000    0.57736000    0.00000000    0.41000000    0.04600000    1.00000000


     Molecule # 2 for Na+ read from file:
     /home/k0171/k017129/qe-6.7-rism/pseudo/SSSP_1.3.0_PBE_efficiency/Na+.aq.MOL
     Density:
         0.27115550E+00 cell^-1
         0.89238937E-04 bohr^-3
         0.10000000E+01 mol/L
         0.22989770E-01 g/cm^3
     Number of atoms:   1
     Atoms:
       #  atom      X (angs)      Y (angs)      Z (angs)      Q (e)         E (kcal/mol)  S (angs)
       1  Na        0.00000000    0.00000000    0.00000000    1.00000000    0.13010000    2.35000000


     Molecule # 3 for Cl- read from file:
     /home/k0171/k017129/qe-6.7-rism/pseudo/SSSP_1.3.0_PBE_efficiency/Cl-.aq.MOL
     Density:
         0.27115550E+00 cell^-1
         0.89238937E-04 bohr^-3
         0.10000000E+01 mol/L
         0.35452700E-01 g/cm^3
     Number of atoms:   1
     Atoms:
       #  atom      X (angs)      Y (angs)      Z (angs)      Q (e)         E (kcal/mol)  S (angs)
       1  Cl        0.00000000    0.00000000    0.00000000   -1.00000000    0.10010000    4.40000000


     1D-RISM info
     ------------
     closure equation        =           KH
     temperature             =     300.0000  kelvin
     coulomb smearing radius =       2.0000  bohr
     number of solvent sites =            5
     number of grids         =         7315
     maximum of R-space      =     999.8633  bohr
     maximum of G-space      =      22.9792  bohr^-1
     number of iterations    =        10000
     convergence threshold   =      1.0E-08
     Gaussian width of bonds =       0.2582  bohr
     size of MDIIS           =           20
     step of MDIIS           =       0.5000
     number of processes     =           64


     1D-RISM Calculation

     iter. #     1  RMS(g-h-1)= 8.990E-04  nbox=  0  T= 2400.00K
     iter. #   101  RMS(g-h-1)= 1.381E-06  nbox= 20  T= 1066.67K
     iter. #   201  RMS(g-h-1)= 6.421E-06  nbox=  4  T=  474.07K
     iter. #   301  RMS(g-h-1)= 1.203E-06  nbox= 20  T=  316.05K
     iter. #   401  RMS(g-h-1)= 3.759E-07  nbox= 20  T=  300.00K
     iter. #   501  RMS(g-h-1)= 1.876E-07  nbox= 20  T=  300.00K
     iter. #   601  RMS(g-h-1)= 1.437E-07  nbox= 20  T=  300.00K
     iter. #   701  RMS(g-h-1)= 1.464E-07  nbox= 20  T=  300.00K
     iter. #   801  RMS(g-h-1)= 6.721E-08  nbox= 20  T=  300.00K
     iter. #   901  RMS(g-h-1)= 4.083E-08  nbox= 20  T=  300.00K
     iter. #  1001  RMS(g-h-1)= 2.360E-08  nbox= 20  T=  300.00K
     iter. #  1101  RMS(g-h-1)= 1.869E-08  nbox= 20  T=  300.00K
     iter. #  1201  RMS(g-h-1)= 1.302E-08  nbox= 20  T=  300.00K
     iter. #  1301  RMS(g-h-1)= 1.123E-08  nbox= 20  T=  300.00K
     iter. #  1375  RMS(g-h-1)= 9.970E-09  nbox= 20  T=  300.00K

     End of 1D-RISM calculation


     convergence has been achieved in  1375 iterations


     Chemical potential of solvation

     H2O        H2O        Closure      0.116262E+00 kcal/mol
                           GaussFluct  -0.326186E+01 kcal/mol

                Na+        Closure     -0.653002E+00 kcal/mol
                           GaussFluct  -0.691644E+00 kcal/mol

                Cl-        Closure     -0.540743E+00 kcal/mol
                           GaussFluct  -0.587560E+00 kcal/mol

                Total      Closure     -0.107748E+01 kcal/mol
                           GaussFluct  -0.454107E+01 kcal/mol

     Na+        H2O        Closure     -0.362461E+02 kcal/mol
                           GaussFluct  -0.383910E+02 kcal/mol

                Na+        Closure      0.351548E+06 kcal/mol
                           GaussFluct   0.351548E+06 kcal/mol

                Cl-        Closure     -0.351594E+06 kcal/mol
                           GaussFluct  -0.351594E+06 kcal/mol

                Total      Closure     -0.814819E+02 kcal/mol
                           GaussFluct  -0.837020E+02 kcal/mol

     Cl-        H2O        Closure     -0.300150E+02 kcal/mol
                           GaussFluct  -0.326136E+02 kcal/mol

                Na+        Closure     -0.351594E+06 kcal/mol
                           GaussFluct  -0.351594E+06 kcal/mol

                Cl-        Closure      0.351549E+06 kcal/mol
                           GaussFluct   0.351549E+06 kcal/mol

                Total      Closure     -0.747452E+02 kcal/mol
                           GaussFluct  -0.774255E+02 kcal/mol

 
     Parallelization info
     --------------------
     sticks:   dense  smooth     PW     G-vecs:    dense   smooth      PW
     Min          16       7      2                 8410     2867     486
     Max          17       8      3                 8477     3014     613
     Sum        1027     511    163               540197   191077   34659
 


     bravais-lattice index     =            0
     lattice parameter (alat)  =       5.5576  a.u.
     unit-cell volume          =    3038.5335 (a.u.)^3
     number of atoms/cell      =            3
     number of atomic types    =            2
     number of electrons       =        32.15
     number of Kohn-Sham states=           40
     kinetic-energy cutoff     =      60.0000  Ry
     charge density cutoff     =     480.0000  Ry
     scf convergence threshold =      1.0E-08
     mixing beta               =       0.1000
     number of iterations used =            8  plain     mixing
     Exchange-correlation= SLA  PW   PBX  PBC
                           (   1   4   3   4   0   0   0)
     Non magnetic calculation with spin-orbit


     Effective Screening Medium Method
     =================================
     Boundary Conditions: Vacuum-Slab-Vacuum
     grid points for fit at edges     =        4 
 

     celldm(1)=   5.557552  celldm(2)=   0.000000  celldm(3)=   0.000000
     celldm(4)=   0.000000  celldm(5)=   0.000000  celldm(6)=   0.000000

     crystal axes: (cart. coord. in units of alat)
               a(1) = (   1.000000   0.000000   0.000000 )  
               a(2) = (  -0.497298   0.867141   0.000000 )  
               a(3) = (   0.000000   0.000000  20.413798 )  

     reciprocal axes: (cart. coord. in units 2 pi/alat)
               b(1) = (  1.000000  0.573492  0.000000 )  
               b(2) = (  0.000000  1.153215  0.000000 )  
               b(3) = (  0.000000  0.000000  0.048986 )  


     PseudoPot. # 1 for Mo read from file:
     /home/k0171/k017129/qe-6.7-rism/pseudo/SSSP_1.3.0_PBE_efficiency/Mo.pbe-spn-kjpaw.UPF
     MD5 check sum: 073cefcbdae7f0c5057c602dbd397cb3
     Pseudo is Projector augmented-wave + core cor, Zval = 14.0
     Generated using "atomic" code by A. Dal Corso  (Quantum ESPRESSO distribution)
     Shape of augmentation charge: PSQ
     Using radial grid of 1229 points,  6 beta functions with: 
                l(1) =   0
                l(2) =   0
                l(3) =   1
                l(4) =   1
                l(5) =   2
                l(6) =   2
     Q(r) pseudized with 0 coefficients 


     PseudoPot. # 2 for C  read from file:
     /home/k0171/k017129/qe-6.7-rism/pseudo/SSSP_1.3.0_PBE_efficiency/C.pbe-n-kjpaw.UPF
     MD5 check sum: eaa142dae74271b1a7e12a15df754a5f
     Pseudo is Projector augmented-wave + core cor, Zval =  4.0
     Generated using "atomic" code by A. Dal Corso  (Quantum ESPRESSO distribution)
     Shape of augmentation charge: BESSEL
     Using radial grid of 1073 points,  4 beta functions with: 
                l(1) =   0
                l(2) =   0
                l(3) =   1
                l(4) =   1
     Q(r) pseudized with 0 coefficients 


     atomic species   valence    mass     pseudopotential
        Mo            14.00    95.95000     Mo( 1.00)
        C              4.00    12.01000     C ( 1.00)

     No symmetry found



   Cartesian axes

     site n.     atom                  positions (alat units)
         1           Mo  tau(   1) = (   0.0029718   0.5777594   2.0602598  )
         2           Mo  tau(   2) = (   0.4995801   0.2891058   2.9114532  )
         3           C   tau(   3) = (   0.0000000   0.0000000   2.4858259  )

     number of k points=    50  Methfessel-Paxton smearing, width (Ry)=  0.0100
                       cart. coord. in units 2pi/alat
        k(    1) = (   0.0500000   0.0863354   0.0000000), wk =   0.0200000
        k(    2) = (   0.0500000   0.2016569   0.0000000), wk =   0.0200000
        k(    3) = (   0.0500000   0.3169785   0.0000000), wk =   0.0200000
        k(    4) = (   0.0500000   0.4323000   0.0000000), wk =   0.0200000
        k(    5) = (   0.0500000   0.5476216   0.0000000), wk =   0.0200000
        k(    6) = (   0.0500000  -0.4902723   0.0000000), wk =   0.0200000
        k(    7) = (   0.0500000  -0.3749508   0.0000000), wk =   0.0200000
        k(    8) = (   0.0500000  -0.2596292   0.0000000), wk =   0.0200000
        k(    9) = (   0.0500000  -0.1443077   0.0000000), wk =   0.0200000
        k(   10) = (   0.0500000  -0.0289862   0.0000000), wk =   0.0200000
        k(   11) = (   0.1500000   0.1436846   0.0000000), wk =   0.0200000
        k(   12) = (   0.1500000   0.2590062   0.0000000), wk =   0.0200000
        k(   13) = (   0.1500000   0.3743277   0.0000000), wk =   0.0200000
        k(   14) = (   0.1500000   0.4896492   0.0000000), wk =   0.0200000
        k(   15) = (   0.1500000   0.6049708   0.0000000), wk =   0.0200000
        k(   16) = (   0.1500000  -0.4329231   0.0000000), wk =   0.0200000
        k(   17) = (   0.1500000  -0.3176016   0.0000000), wk =   0.0200000
        k(   18) = (   0.1500000  -0.2022800   0.0000000), wk =   0.0200000
        k(   19) = (   0.1500000  -0.0869585   0.0000000), wk =   0.0200000
        k(   20) = (   0.1500000   0.0283631   0.0000000), wk =   0.0200000
        k(   21) = (   0.2500000   0.2010338   0.0000000), wk =   0.0200000
        k(   22) = (   0.2500000   0.3163554   0.0000000), wk =   0.0200000
        k(   23) = (   0.2500000   0.4316769   0.0000000), wk =   0.0200000
        k(   24) = (   0.2500000   0.5469985   0.0000000), wk =   0.0200000
        k(   25) = (   0.2500000   0.6623200   0.0000000), wk =   0.0200000
        k(   26) = (   0.2500000  -0.3755739   0.0000000), wk =   0.0200000
        k(   27) = (   0.2500000  -0.2602523   0.0000000), wk =   0.0200000
        k(   28) = (   0.2500000  -0.1449308   0.0000000), wk =   0.0200000
        k(   29) = (   0.2500000  -0.0296092   0.0000000), wk =   0.0200000
        k(   30) = (   0.2500000   0.0857123   0.0000000), wk =   0.0200000
        k(   31) = (   0.3500000   0.2583831   0.0000000), wk =   0.0200000
        k(   32) = (   0.3500000   0.3737046   0.0000000), wk =   0.0200000
        k(   33) = (   0.3500000   0.4890262   0.0000000), wk =   0.0200000
        k(   34) = (   0.3500000   0.6043477   0.0000000), wk =   0.0200000
        k(   35) = (   0.3500000   0.7196692   0.0000000), wk =   0.0200000
        k(   36) = (   0.3500000  -0.3182246   0.0000000), wk =   0.0200000
        k(   37) = (   0.3500000  -0.2029031   0.0000000), wk =   0.0200000
        k(   38) = (   0.3500000  -0.0875816   0.0000000), wk =   0.0200000
        k(   39) = (   0.3500000   0.0277400   0.0000000), wk =   0.0200000
        k(   40) = (   0.3500000   0.1430615   0.0000000), wk =   0.0200000
        k(   41) = (   0.4500000   0.3157323   0.0000000), wk =   0.0200000
        k(   42) = (   0.4500000   0.4310538   0.0000000), wk =   0.0200000
        k(   43) = (   0.4500000   0.5463754   0.0000000), wk =   0.0200000
        k(   44) = (   0.4500000   0.6616969   0.0000000), wk =   0.0200000
        k(   45) = (   0.4500000   0.7770185   0.0000000), wk =   0.0200000
        k(   46) = (   0.4500000  -0.2608754   0.0000000), wk =   0.0200000
        k(   47) = (   0.4500000  -0.1455539   0.0000000), wk =   0.0200000
        k(   48) = (   0.4500000  -0.0302323   0.0000000), wk =   0.0200000
        k(   49) = (   0.4500000   0.0850892   0.0000000), wk =   0.0200000
        k(   50) = (   0.4500000   0.2004108   0.0000000), wk =   0.0200000

     Dense  grid:   540197 G-vectors     FFT dimensions: (  40,  40, 800)

     Smooth grid:   191077 G-vectors     FFT dimensions: (  27,  27, 576)

     Estimated max dynamical RAM per process >      66.40 MB

     Estimated total dynamical RAM >       4.15 GB

     Solute:
       # atom     E (kcal/mol)  S (angs)
       1  Mo      0.05600000    3.05200000    given
       2  Mo      0.05600000    3.05200000    given
       3  C       0.05600000    3.05200000    given

     Wall:
       Density =    0.01000000  bohr^-3
       E       =    0.10000000  kcal/mol
       S       =    4.00000000  angs


     Laue-RISM info
     --------------
     closure equation        =           KH
     temperature             =     300.0000  kelvin
     coulomb smearing radius =       2.0000  bohr
     number of solvent sites =            4
     solvent sites           =    O/h2o   H/h2o      Na      Cl
     number of iterations    =        10000
     convergence threshold   =      1.0E-06
     convergence level       =       0.1000
     size of MDIIS           =           10
     step of MDIIS           =       0.8000
     solvent cutoff          =     240.0000  Ry
     Custom grid:   191077 G-vectors     FFT dimensions: (  27,  27, 576)

     Boundary Conditions        : Vacuum-Slab-Solvent
     unit-cell (in bohr)        : [ -56.725374  56.725374]
     expand-cell (in bohr)      : [ -56.725374 164.858117]
     solvent of right (in bohr) : [   8.469413 164.858117]
     buffer  of right (in bohr) : [   0.393926   8.469413]
     repulsive wall (in bohr)   : [  -Infinity   6.276106]
     reference of potential     : right-hand side
     #grids to fit at edges of unit-cell =    4
     Laue grid:      511 Gxy-vectors     FFT dimensions: (  27,  27,1125)


     Initial potential from superposition of free atoms

     starting charge   31.99737, renormalised to   32.15000

     negative rho (up, down):  2.588E-04 0.000E+00

     Laue-RISM Calculation

     convergence threshold    = 3.981E-03
     iter. #     1  RMS(g-h-1)= 4.036E+00  nbox=  0
     iter. #    11  RMS(g-h-1)= 9.770E-02  nbox= 10
     iter. #    21  RMS(g-h-1)= 4.854E-02  nbox= 10
     iter. #    31  RMS(g-h-1)= 2.098E-02  nbox= 10
     iter. #    41  RMS(g-h-1)= 1.322E-02  nbox= 10
     iter. #    51  RMS(g-h-1)= 9.844E-03  nbox= 10
     iter. #    61  RMS(g-h-1)= 7.948E-03  nbox= 10
     iter. #    71  RMS(g-h-1)= 6.358E-03  nbox=  7
     iter. #    81  RMS(g-h-1)= 4.973E-03  nbox= 10
     iter. #    88  RMS(g-h-1)= 3.892E-03  nbox=  8

     End of Laue-RISM calculation


     convergence has been achieved in    88 iterations


     solvent charge   -0.03424, renormalised to    0.15000

     Total number of solvent (in expand-cell)
     H2O           19.278479
     Na+            0.362611
     Cl-            0.342924

     Total charge of solvent (in expand-cell)
     H2O           -0.053928 e
     Na+            0.362611 e
     Cl-           -0.342924 e
     Total         -0.034241 e

     Chemical potential of solvation (in expand-cell)
     H2O        GaussFluct   0.502711E+01 kcal/mol
     Na+        GaussFluct   0.613842E+03 kcal/mol
     Cl-        GaussFluct  -0.595551E+03 kcal/mol
     Total      GaussFluct   0.233179E+02 kcal/mol

     Starting wfcs are   60 randomized atomic wfcs
     Checking if some PAW data can be deallocated... 

     total cpu time spent up to now is       22.8 secs

     Self-consistent Calculation

     iteration #  1     ecut=    60.00 Ry     beta= 0.10
     RMM-DIIS diagonalization
     ethr =  1.00E-02,  avg # of iterations =  1.9

     negative rho (up, down):  7.371E-05 0.000E+00

     Laue-RISM Calculation

     convergence threshold    = 3.981E-03
     iter. #     1  RMS(g-h-1)= 1.665E-01  nbox=  0
     iter. #    11  RMS(g-h-1)= 2.455E-02  nbox= 10
     iter. #    21  RMS(g-h-1)= 1.422E-02  nbox= 10
     iter. #    31  RMS(g-h-1)= 1.116E-02  nbox= 10
     iter. #    41  RMS(g-h-1)= 8.108E-03  nbox= 10
     iter. #    51  RMS(g-h-1)= 6.517E-03  nbox= 10
     iter. #    61  RMS(g-h-1)= 5.262E-03  nbox=  5
     iter. #    71  RMS(g-h-1)= 3.946E-03  nbox= 10

     End of Laue-RISM calculation


     convergence has been achieved in    71 iterations


     solvent charge    0.15391, renormalised to    0.15000

     Total number of solvent (in expand-cell)
     H2O           19.256027
     Na+            0.532276
     Cl-            0.363077

     Total charge of solvent (in expand-cell)
     H2O           -0.015294 e
     Na+            0.532276 e
     Cl-           -0.363077 e
     Total          0.153906 e

     Chemical potential of solvation (in expand-cell)
     H2O        GaussFluct   0.957850E+00 kcal/mol
     Na+        GaussFluct   0.485459E+03 kcal/mol
     Cl-        GaussFluct  -0.506209E+03 kcal/mol
     Total      GaussFluct  -0.197926E+02 kcal/mol


     total cpu time spent up to now is       30.6 secs

     total energy              =    -743.25832885 Ry
     estimated scf accuracy    <      19.02617495 Ry

     iteration #  2     ecut=    60.00 Ry     beta= 0.10
     RMM-DIIS diagonalization
     ethr =  1.00E-02,  avg # of iterations =  2.7

     negative rho (up, down):  5.111E-05 0.000E+00

     Laue-RISM Calculation

     convergence threshold    = 3.981E-03
     iter. #     1  RMS(g-h-1)= 7.681E-02  nbox=  0
     iter. #    11  RMS(g-h-1)= 1.011E-02  nbox= 10
     iter. #    21  RMS(g-h-1)= 5.849E-03  nbox= 10
     iter. #    28  RMS(g-h-1)= 3.904E-03  nbox= 10

     End of Laue-RISM calculation


     convergence has been achieved in    28 iterations


     solvent charge    0.12319, renormalised to    0.15000

     Total number of solvent (in expand-cell)
     H2O           19.246483
     Na+            0.487687
     Cl-            0.347954

     Total charge of solvent (in expand-cell)
     H2O           -0.016547 e
     Na+            0.487687 e
     Cl-           -0.347954 e
     Total          0.123186 e

     Chemical potential of solvation (in expand-cell)
     H2O        GaussFluct   0.819574E+00 kcal/mol
     Na+        GaussFluct   0.540723E+03 kcal/mol
     Cl-        GaussFluct  -0.538325E+03 kcal/mol
     Total      GaussFluct   0.321787E+01 kcal/mol


     total cpu time spent up to now is       36.5 secs

     total energy              =    -746.11994874 Ry
     estimated scf accuracy    <      10.56327799 Ry

     iteration #  3     ecut=    60.00 Ry     beta= 0.10
     RMM-DIIS diagonalization
     ethr =  1.00E-02,  avg # of iterations =  2.5

     negative rho (up, down):  2.836E-05 0.000E+00

     Laue-RISM Calculation

     convergence threshold    = 3.981E-03
     iter. #     1  RMS(g-h-1)= 1.392E-01  nbox=  0
     iter. #    11  RMS(g-h-1)= 1.608E-02  nbox= 10
     iter. #    21  RMS(g-h-1)= 1.054E-02  nbox= 10
     iter. #    31  RMS(g-h-1)= 6.764E-03  nbox= 10
     iter. #    41  RMS(g-h-1)= 4.848E-03  nbox= 10
     iter. #    51  RMS(g-h-1)= 3.896E-03  nbox= 10

     End of Laue-RISM calculation


     convergence has been achieved in    51 iterations


     solvent charge    0.06723, renormalised to    0.15000

     Total number of solvent (in expand-cell)
     H2O           19.256989
     Na+            0.438598
     Cl-            0.334250

     Total charge of solvent (in expand-cell)
     H2O           -0.037117 e
     Na+            0.438598 e
     Cl-           -0.334250 e
     Total          0.067230 e

     Chemical potential of solvation (in expand-cell)
     H2O        GaussFluct   0.366735E+01 kcal/mol
     Na+        GaussFluct   0.602212E+03 kcal/mol
     Cl-        GaussFluct  -0.584615E+03 kcal/mol
     Total      GaussFluct   0.212642E+02 kcal/mol


     total cpu time spent up to now is       43.0 secs

     total energy              =    -744.93859643 Ry
     estimated scf accuracy    <       5.50568386 Ry

     iteration #  4     ecut=    60.00 Ry     beta= 0.10
     RMM-DIIS diagonalization
     ethr =  1.00E-02,  avg # of iterations =  2.5

     negative rho (up, down):  2.384E-05 0.000E+00

     Laue-RISM Calculation

     convergence threshold    = 3.981E-03
     iter. #     1  RMS(g-h-1)= 2.841E-01  nbox=  0
     iter. #    11  RMS(g-h-1)= 1.936E-02  nbox= 10
     iter. #    21  RMS(g-h-1)= 8.479E-03  nbox= 10
     iter. #    31  RMS(g-h-1)= 4.022E-03  nbox= 10
     iter. #    32  RMS(g-h-1)= 3.776E-03  nbox= 10

     End of Laue-RISM calculation


     convergence has been achieved in    32 iterations


     solvent charge    0.11585, renormalised to    0.15000

     Total number of solvent (in expand-cell)
     H2O           19.182847
     Na+            0.508716
     Cl-            0.355518

     Total charge of solvent (in expand-cell)
     H2O           -0.037352 e
     Na+            0.508716 e
     Cl-           -0.355518 e
     Total          0.115846 e

     Chemical potential of solvation (in expand-cell)
     H2O        GaussFluct   0.652361E+01 kcal/mol
     Na+        GaussFluct   0.533133E+03 kcal/mol
     Cl-        GaussFluct  -0.534837E+03 kcal/mol
     Total      GaussFluct   0.482013E+01 kcal/mol


     total cpu time spent up to now is       48.8 secs

     total energy              =    -744.60069409 Ry
     estimated scf accuracy    <      20.35195012 Ry

     iteration #  5     ecut=    60.00 Ry     beta= 0.10
     RMM-DIIS diagonalization
     ethr =  1.00E-02,  avg # of iterations =  2.5

     negative rho (up, down):  1.442E-05 0.000E+00

     Laue-RISM Calculation

     convergence threshold    = 3.981E-03
     iter. #     1  RMS(g-h-1)= 6.739E-02  nbox=  0
     iter. #    11  RMS(g-h-1)= 6.184E-03  nbox= 10
     iter. #    18  RMS(g-h-1)= 3.862E-03  nbox= 10

     End of Laue-RISM calculation


     convergence has been achieved in    18 iterations


     solvent charge    0.09776, renormalised to    0.15000

     Total number of solvent (in expand-cell)
     H2O           19.212277
     Na+            0.484216
     Cl-            0.370182

     Total charge of solvent (in expand-cell)
     H2O           -0.016270 e
     Na+            0.484216 e
     Cl-           -0.370182 e
     Total          0.097763 e

     Chemical potential of solvation (in expand-cell)
     H2O        GaussFluct   0.101520E+02 kcal/mol
     Na+        GaussFluct   0.516726E+03 kcal/mol
     Cl-        GaussFluct  -0.527955E+03 kcal/mol
     Total      GaussFluct  -0.107651E+01 kcal/mol


     total cpu time spent up to now is       54.1 secs

     total energy              =    -746.02981265 Ry
     estimated scf accuracy    <       1.12244867 Ry

     iteration #  6     ecut=    60.00 Ry     beta= 0.10
     RMM-DIIS diagonalization
     ethr =  3.49E-03,  avg # of iterations =  2.8

     negative rho (up, down):  1.465E-05 0.000E+00

     Laue-RISM Calculation

     convergence threshold    = 3.981E-03
     iter. #     1  RMS(g-h-1)= 7.055E-02  nbox=  0
     iter. #    11  RMS(g-h-1)= 5.717E-03  nbox= 10
     iter. #    14  RMS(g-h-1)= 3.886E-03  nbox= 10

     End of Laue-RISM calculation


     convergence has been achieved in    14 iterations


     solvent charge    0.08474, renormalised to    0.15000

     Total number of solvent (in expand-cell)
     H2O           19.217006
     Na+            0.466401
     Cl-            0.364832

     Total charge of solvent (in expand-cell)
     H2O           -0.016830 e
     Na+            0.466401 e
     Cl-           -0.364832 e
     Total          0.084739 e

     Chemical potential of solvation (in expand-cell)
     H2O        GaussFluct   0.105849E+02 kcal/mol
     Na+        GaussFluct   0.549026E+03 kcal/mol
     Cl-        GaussFluct  -0.548653E+03 kcal/mol
     Total      GaussFluct   0.109573E+02 kcal/mol


     total cpu time spent up to now is       59.8 secs

     total energy              =    -745.83766117 Ry
     estimated scf accuracy    <       5.53007859 Ry

     iteration #  7     ecut=    60.00 Ry     beta= 0.10
     RMM-DIIS diagonalization
     ethr =  3.49E-03,  avg # of iterations =  2.5

     negative rho (up, down):  1.617E-05 0.000E+00

     Laue-RISM Calculation

     convergence threshold    = 3.981E-03
     iter. #     1  RMS(g-h-1)= 7.566E-03  nbox=  0
     iter. #     7  RMS(g-h-1)= 3.760E-03  nbox=  6

     End of Laue-RISM calculation


     convergence has been achieved in     7 iterations


     solvent charge    0.08135, renormalised to    0.15000

     Total number of solvent (in expand-cell)
     H2O           19.220827
     Na+            0.467738
     Cl-            0.363956

     Total charge of solvent (in expand-cell)
     H2O           -0.022432 e
     Na+            0.467738 e
     Cl-           -0.363956 e
     Total          0.081350 e

     Chemical potential of solvation (in expand-cell)
     H2O        GaussFluct   0.103394E+02 kcal/mol
     Na+        GaussFluct   0.549282E+03 kcal/mol
     Cl-        GaussFluct  -0.548570E+03 kcal/mol
     Total      GaussFluct   0.110511E+02 kcal/mol


     total cpu time spent up to now is       64.7 secs

     total energy              =    -745.96538236 Ry
     estimated scf accuracy    <       0.49026957 Ry

     iteration #  8     ecut=    60.00 Ry     beta= 0.10
     RMM-DIIS diagonalization
     ethr =  1.52E-03,  avg # of iterations =  2.6

     negative rho (up, down):  1.996E-05 0.000E+00

     Laue-RISM Calculation

     convergence threshold    = 3.981E-03
     iter. #     1  RMS(g-h-1)= 3.683E-02  nbox=  0
     iter. #    11  RMS(g-h-1)= 4.452E-03  nbox= 10
     iter. #    12  RMS(g-h-1)= 3.643E-03  nbox= 10

     End of Laue-RISM calculation


     convergence has been achieved in    12 iterations


     solvent charge    0.08277, renormalised to    0.15000

     Total number of solvent (in expand-cell)
     H2O           19.234321
     Na+            0.464364
     Cl-            0.363939

     Total charge of solvent (in expand-cell)
     H2O           -0.017658 e
     Na+            0.464364 e
     Cl-           -0.363939 e
     Total          0.082768 e

     Chemical potential of solvation (in expand-cell)
     H2O        GaussFluct   0.110283E+02 kcal/mol
     Na+        GaussFluct   0.547373E+03 kcal/mol
     Cl-        GaussFluct  -0.547315E+03 kcal/mol
     Total      GaussFluct   0.110862E+02 kcal/mol


     total cpu time spent up to now is       69.9 secs

     total energy              =    -746.00258288 Ry
     estimated scf accuracy    <       0.52358616 Ry

     iteration #  9     ecut=    60.00 Ry     beta= 0.10
     RMM-DIIS diagonalization
     ethr =  1.52E-03,  avg # of iterations =  2.5

     negative rho (up, down):  6.061E-05 0.000E+00

     Laue-RISM Calculation

     convergence threshold    = 3.981E-03
     iter. #     1  RMS(g-h-1)= 7.710E-02  nbox=  0
     iter. #    11  RMS(g-h-1)= 7.545E-03  nbox= 10
     iter. #    18  RMS(g-h-1)= 3.976E-03  nbox= 10

     End of Laue-RISM calculation


     convergence has been achieved in    18 iterations


     solvent charge    0.12448, renormalised to    0.15000

     Total number of solvent (in expand-cell)
     H2O           19.237242
     Na+            0.476508
     Cl-            0.365530

     Total charge of solvent (in expand-cell)
     H2O            0.013506 e
     Na+            0.476508 e
     Cl-           -0.365530 e
     Total          0.124485 e

     Chemical potential of solvation (in expand-cell)
     H2O        GaussFluct   0.111498E+02 kcal/mol
     Na+        GaussFluct   0.541585E+03 kcal/mol
     Cl-        GaussFluct  -0.543383E+03 kcal/mol
     Total      GaussFluct   0.935204E+01 kcal/mol


     total cpu time spent up to now is       75.2 secs

     total energy              =    -746.07301742 Ry
     estimated scf accuracy    <       0.94886418 Ry

     iteration # 10     ecut=    60.00 Ry     beta= 0.10
     RMM-DIIS diagonalization
     ethr =  1.52E-03,  avg # of iterations =  2.5

     negative rho (up, down):  2.208E-04 0.000E+00

     Laue-RISM Calculation

     convergence threshold    = 3.981E-03
     iter. #     1  RMS(g-h-1)= 7.117E-02  nbox=  0
     iter. #    11  RMS(g-h-1)= 8.938E-03  nbox= 10
     iter. #    21  RMS(g-h-1)= 5.510E-03  nbox= 10
     iter. #    31  RMS(g-h-1)= 4.426E-03  nbox=  4
     iter. #    35  RMS(g-h-1)= 3.945E-03  nbox=  8

     End of Laue-RISM calculation


     convergence has been achieved in    35 iterations


     solvent charge    0.19602, renormalised to    0.15000

     Total number of solvent (in expand-cell)
     H2O           19.212136
     Na+            0.516770
     Cl-            0.340475

     Total charge of solvent (in expand-cell)
     H2O            0.019729 e
     Na+            0.516770 e
     Cl-           -0.340475 e
     Total          0.196024 e

     Chemical potential of solvation (in expand-cell)
     H2O        GaussFluct   0.766704E+01 kcal/mol
     Na+        GaussFluct   0.578516E+03 kcal/mol
     Cl-        GaussFluct  -0.564844E+03 kcal/mol
     Total      GaussFluct   0.213389E+02 kcal/mol


     total cpu time spent up to now is       81.1 secs

     total energy              =    -745.73459072 Ry
     estimated scf accuracy    <       2.02988012 Ry

     iteration # 11     ecut=    60.00 Ry     beta= 0.10
     RMM-DIIS diagonalization
     ethr =  1.52E-03,  avg # of iterations =  2.6

     negative rho (up, down):  7.530E-05 0.000E+00

     Laue-RISM Calculation

     convergence threshold    = 3.981E-03
     iter. #     1  RMS(g-h-1)= 1.204E-01  nbox=  0
     iter. #    11  RMS(g-h-1)= 9.536E-03  nbox= 10
     iter. #    21  RMS(g-h-1)= 3.819E-03  nbox= 10

     End of Laue-RISM calculation


     convergence has been achieved in    21 iterations


     solvent charge    0.20101, renormalised to    0.15000

     Total number of solvent (in expand-cell)
     H2O           19.178369
     Na+            0.545453
     Cl-            0.347074

     Total charge of solvent (in expand-cell)
     H2O            0.002628 e
     Na+            0.545453 e
     Cl-           -0.347074 e
     Total          0.201007 e

     Chemical potential of solvation (in expand-cell)
     H2O        GaussFluct   0.779942E+01 kcal/mol
     Na+        GaussFluct   0.544555E+03 kcal/mol
     Cl-        GaussFluct  -0.540978E+03 kcal/mol
     Total      GaussFluct   0.113770E+02 kcal/mol


     total cpu time spent up to now is       86.6 secs

     total energy              =    -745.56862788 Ry
     estimated scf accuracy    <      11.71724099 Ry

     iteration # 12     ecut=    60.00 Ry     beta= 0.10
     RMM-DIIS diagonalization
     ethr =  1.52E-03,  avg # of iterations =  2.5

     negative rho (up, down):  5.367E-05 0.000E+00

     Laue-RISM Calculation

     convergence threshold    = 3.981E-03
     iter. #     1  RMS(g-h-1)= 4.115E-02  nbox=  0
     iter. #    11  RMS(g-h-1)= 5.373E-03  nbox= 10
     iter. #    15  RMS(g-h-1)= 3.519E-03  nbox= 10

     End of Laue-RISM calculation


     convergence has been achieved in    15 iterations


     solvent charge    0.17924, renormalised to    0.15000

     Total number of solvent (in expand-cell)
     H2O           19.180165
     Na+            0.526661
     Cl-            0.353966

     Total charge of solvent (in expand-cell)
     H2O            0.006546 e
     Na+            0.526661 e
     Cl-           -0.353966 e
     Total          0.179240 e

     Chemical potential of solvation (in expand-cell)
     H2O        GaussFluct   0.812726E+01 kcal/mol
     Na+        GaussFluct   0.538318E+03 kcal/mol
     Cl-        GaussFluct  -0.538721E+03 kcal/mol
     Total      GaussFluct   0.772490E+01 kcal/mol


     total cpu time spent up to now is       91.8 secs

     total energy              =    -746.08465049 Ry
     estimated scf accuracy    <       0.19771107 Ry

     iteration # 13     ecut=    60.00 Ry     beta= 0.10
     RMM-DIIS diagonalization
     ethr =  6.15E-04,  avg # of iterations =  3.0

     negative rho (up, down):  1.200E-04 0.000E+00

     Laue-RISM Calculation

     convergence threshold    = 3.981E-03
     iter. #     1  RMS(g-h-1)= 6.921E-02  nbox=  0
     iter. #    11  RMS(g-h-1)= 4.097E-03  nbox= 10
     iter. #    12  RMS(g-h-1)= 3.501E-03  nbox= 10

     End of Laue-RISM calculation


     convergence has been achieved in    12 iterations


     solvent charge    0.11703, renormalised to    0.15000

     Total number of solvent (in expand-cell)
     H2O           19.195465
     Na+            0.501151
     Cl-            0.361152

     Total charge of solvent (in expand-cell)
     H2O           -0.022970 e
     Na+            0.501151 e
     Cl-           -0.361152 e
     Total          0.117029 e

     Chemical potential of solvation (in expand-cell)
     H2O        GaussFluct   0.889762E+01 kcal/mol
     Na+        GaussFluct   0.546061E+03 kcal/mol
     Cl-        GaussFluct  -0.545771E+03 kcal/mol
     Total      GaussFluct   0.918695E+01 kcal/mol


     total cpu time spent up to now is       97.8 secs

     total energy              =    -746.04801085 Ry
     estimated scf accuracy    <       0.94155317 Ry

     iteration # 14     ecut=    60.00 Ry     beta= 0.10
     RMM-DIIS diagonalization
     ethr =  6.15E-04,  avg # of iterations =  2.5

     negative rho (up, down):  2.435E-04 0.000E+00

     Laue-RISM Calculation

     convergence threshold    = 3.981E-03
     iter. #     1  RMS(g-h-1)= 4.833E-02  nbox=  0
     iter. #    11  RMS(g-h-1)= 4.479E-03  nbox= 10
     iter. #    13  RMS(g-h-1)= 3.394E-03  nbox= 10

     End of Laue-RISM calculation


     convergence has been achieved in    13 iterations


     solvent charge    0.10862, renormalised to    0.15000

     Total number of solvent (in expand-cell)
     H2O           19.214127
     Na+            0.479083
     Cl-            0.366166

     Total charge of solvent (in expand-cell)
     H2O           -0.004295 e
     Na+            0.479083 e
     Cl-           -0.366166 e
     Total          0.108622 e

     Chemical potential of solvation (in expand-cell)
     H2O        GaussFluct   0.100263E+02 kcal/mol
     Na+        GaussFluct   0.550538E+03 kcal/mol
     Cl-        GaussFluct  -0.550941E+03 kcal/mol
     Total      GaussFluct   0.962246E+01 kcal/mol


     total cpu time spent up to now is      103.0 secs

     total energy              =    -746.05153784 Ry
     estimated scf accuracy    <       0.34970877 Ry

     iteration # 15     ecut=    60.00 Ry     beta= 0.10
     RMM-DIIS diagonalization
     ethr =  6.15E-04,  avg # of iterations =  2.5

     negative rho (up, down):  3.051E-04 0.000E+00

     Laue-RISM Calculation

     convergence threshold    = 3.981E-03
     iter. #     1  RMS(g-h-1)= 1.951E-02  nbox=  0
     iter. #     9  RMS(g-h-1)= 3.749E-03  nbox=  8

     End of Laue-RISM calculation


     convergence has been achieved in     9 iterations


     solvent charge    0.08994, renormalised to    0.15000

     Total number of solvent (in expand-cell)
     H2O           19.218927
     Na+            0.473285
     Cl-            0.366245

     Total charge of solvent (in expand-cell)
     H2O           -0.017100 e
     Na+            0.473285 e
     Cl-           -0.366245 e
     Total          0.089940 e

     Chemical potential of solvation (in expand-cell)
     H2O        GaussFluct   0.997871E+01 kcal/mol
     Na+        GaussFluct   0.550445E+03 kcal/mol
     Cl-        GaussFluct  -0.551276E+03 kcal/mol
     Total      GaussFluct   0.914737E+01 kcal/mol


     total cpu time spent up to now is      108.0 secs

     total energy              =    -746.05847694 Ry
     estimated scf accuracy    <       0.08751108 Ry

     iteration # 16     ecut=    60.00 Ry     beta= 0.10
     RMM-DIIS diagonalization
     ethr =  2.72E-04,  avg # of iterations =  2.7

     negative rho (up, down):  2.552E-04 0.000E+00

     Laue-RISM Calculation

     convergence threshold    = 3.981E-03
     iter. #     1  RMS(g-h-1)= 2.727E-02  nbox=  0
     iter. #     5  RMS(g-h-1)= 3.280E-03  nbox=  4

     End of Laue-RISM calculation


     convergence has been achieved in     5 iterations


     solvent charge    0.11154, renormalised to    0.15000

     Total number of solvent (in expand-cell)
     H2O           19.217580
     Na+            0.473257
     Cl-            0.364611

     Total charge of solvent (in expand-cell)
     H2O            0.002891 e
     Na+            0.473257 e
     Cl-           -0.364611 e
     Total          0.111538 e

     Chemical potential of solvation (in expand-cell)
     H2O        GaussFluct   0.102539E+02 kcal/mol
     Na+        GaussFluct   0.553913E+03 kcal/mol
     Cl-        GaussFluct  -0.553513E+03 kcal/mol
     Total      GaussFluct   0.106541E+02 kcal/mol


     total cpu time spent up to now is      113.2 secs

     total energy              =    -746.05724420 Ry
     estimated scf accuracy    <       0.13458362 Ry

     iteration # 17     ecut=    60.00 Ry     beta= 0.10
     RMM-DIIS diagonalization
     ethr =  2.72E-04,  avg # of iterations =  2.6

     negative rho (up, down):  1.856E-04 0.000E+00

     Laue-RISM Calculation

     convergence threshold    = 2.659E-03
     iter. #     1  RMS(g-h-1)= 3.062E-02  nbox=  0
     iter. #     9  RMS(g-h-1)= 2.657E-03  nbox=  8

     End of Laue-RISM calculation


     convergence has been achieved in     9 iterations


     solvent charge    0.16653, renormalised to    0.15000

     Total number of solvent (in expand-cell)
     H2O           19.215954
     Na+            0.492692
     Cl-            0.358705

     Total charge of solvent (in expand-cell)
     H2O            0.032545 e
     Na+            0.492692 e
     Cl-           -0.358705 e
     Total          0.166531 e

     Chemical potential of solvation (in expand-cell)
     H2O        GaussFluct   0.102570E+02 kcal/mol
     Na+        GaussFluct   0.548974E+03 kcal/mol
     Cl-        GaussFluct  -0.548464E+03 kcal/mol
     Total      GaussFluct   0.107665E+02 kcal/mol


     total cpu time spent up to now is      118.3 secs

     total energy              =    -746.08982790 Ry
     estimated scf accuracy    <       0.03108117 Ry

     iteration # 18     ecut=    60.00 Ry     beta= 0.10
     RMM-DIIS diagonalization
     ethr =  9.67E-05,  avg # of iterations =  3.3

     negative rho (up, down):  1.746E-04 0.000E+00

     Laue-RISM Calculation

     convergence threshold    = 3.981E-03
     iter. #     1  RMS(g-h-1)= 3.328E-02  nbox=  0
     iter. #     6  RMS(g-h-1)= 3.913E-03  nbox=  5

     End of Laue-RISM calculation


     convergence has been achieved in     6 iterations


     solvent charge    0.17015, renormalised to    0.15000

     Total number of solvent (in expand-cell)
     H2O           19.218227
     Na+            0.502154
     Cl-            0.356110

     Total charge of solvent (in expand-cell)
     H2O            0.024106 e
     Na+            0.502154 e
     Cl-           -0.356110 e
     Total          0.170150 e

     Chemical potential of solvation (in expand-cell)
     H2O        GaussFluct   0.996386E+01 kcal/mol
     Na+        GaussFluct   0.551560E+03 kcal/mol
     Cl-        GaussFluct  -0.549585E+03 kcal/mol
     Total      GaussFluct   0.119381E+02 kcal/mol


     total cpu time spent up to now is      124.4 secs

     total energy              =    -746.09429443 Ry
     estimated scf accuracy    <       0.05468630 Ry

     iteration # 19     ecut=    60.00 Ry     beta= 0.10
     RMM-DIIS diagonalization
     ethr =  9.67E-05,  avg # of iterations =  3.0

     negative rho (up, down):  1.681E-04 0.000E+00

     Laue-RISM Calculation

     convergence threshold    = 8.345E-04
     iter. #     1  RMS(g-h-1)= 8.994E-03  nbox=  0
     iter. #    11  RMS(g-h-1)= 1.507E-03  nbox= 10
     iter. #    21  RMS(g-h-1)= 1.048E-03  nbox= 10
     iter. #    31  RMS(g-h-1)= 9.105E-04  nbox= 10
     iter. #    36  RMS(g-h-1)= 8.305E-04  nbox=  4

     End of Laue-RISM calculation


     convergence has been achieved in    36 iterations


     solvent charge    0.14250, renormalised to    0.15000

     Total number of solvent (in expand-cell)
     H2O           19.207639
     Na+            0.500893
     Cl-            0.354064

     Total charge of solvent (in expand-cell)
     H2O           -0.004334 e
     Na+            0.500893 e
     Cl-           -0.354064 e
     Total          0.142495 e

     Chemical potential of solvation (in expand-cell)
     H2O        GaussFluct   0.924217E+01 kcal/mol
     Na+        GaussFluct   0.555402E+03 kcal/mol
     Cl-        GaussFluct  -0.551734E+03 kcal/mol
     Total      GaussFluct   0.129103E+02 kcal/mol


     total cpu time spent up to now is      131.2 secs

     total energy              =    -746.08012734 Ry
     estimated scf accuracy    <       0.01283740 Ry

     iteration # 20     ecut=    60.00 Ry     beta= 0.10
     RMM-DIIS diagonalization
     ethr =  3.99E-05,  avg # of iterations =  3.5

     negative rho (up, down):  1.329E-04 0.000E+00

     Laue-RISM Calculation

     convergence threshold    = 3.981E-03
     iter. #     1  RMS(g-h-1)= 5.554E-02  nbox=  0
     iter. #     6  RMS(g-h-1)= 3.402E-03  nbox=  5

     End of Laue-RISM calculation


     convergence has been achieved in     6 iterations


     solvent charge    0.15952, renormalised to    0.15000

     Total number of solvent (in expand-cell)
     H2O           19.210341
     Na+            0.512568
     Cl-            0.349483

     Total charge of solvent (in expand-cell)
     H2O           -0.003566 e
     Na+            0.512568 e
     Cl-           -0.349483 e
     Total          0.159519 e

     Chemical potential of solvation (in expand-cell)
     H2O        GaussFluct   0.890539E+01 kcal/mol
     Na+        GaussFluct   0.561322E+03 kcal/mol
     Cl-        GaussFluct  -0.554838E+03 kcal/mol
     Total      GaussFluct   0.153896E+02 kcal/mol


     total cpu time spent up to now is      137.8 secs

     total energy              =    -746.10240050 Ry
     estimated scf accuracy    <       0.07141492 Ry

     iteration # 21     ecut=    60.00 Ry     beta= 0.10
     RMM-DIIS diagonalization
     ethr =  3.99E-05,  avg # of iterations =  3.9

     negative rho (up, down):  1.795E-04 0.000E+00

     Laue-RISM Calculation

     convergence threshold    = 3.981E-03
     iter. #     1  RMS(g-h-1)= 4.994E-02  nbox=  0
     iter. #     6  RMS(g-h-1)= 2.295E-03  nbox=  5

     End of Laue-RISM calculation


     convergence has been achieved in     6 iterations


     solvent charge    0.14500, renormalised to    0.15000

     Total number of solvent (in expand-cell)
     H2O           19.208835
     Na+            0.483421
     Cl-            0.360214

     Total charge of solvent (in expand-cell)
     H2O            0.021793 e
     Na+            0.483421 e
     Cl-           -0.360214 e
     Total          0.145000 e

     Chemical potential of solvation (in expand-cell)
     H2O        GaussFluct   0.982456E+01 kcal/mol
     Na+        GaussFluct   0.551581E+03 kcal/mol
     Cl-        GaussFluct  -0.551239E+03 kcal/mol
     Total      GaussFluct   0.101667E+02 kcal/mol


     total cpu time spent up to now is      145.0 secs

     total energy              =    -746.05895149 Ry
     estimated scf accuracy    <       1.00121241 Ry

     iteration # 22     ecut=    60.00 Ry     beta= 0.10
     RMM-DIIS diagonalization
     ethr =  3.99E-05,  avg # of iterations =  3.3

     negative rho (up, down):  1.826E-04 0.000E+00

     Laue-RISM Calculation

     convergence threshold    = 6.074E-04
     iter. #     1  RMS(g-h-1)= 3.169E-02  nbox=  0
     iter. #    11  RMS(g-h-1)= 1.414E-03  nbox= 10
     iter. #    21  RMS(g-h-1)= 7.057E-04  nbox= 10
     iter. #    27  RMS(g-h-1)= 5.976E-04  nbox= 10

     End of Laue-RISM calculation


     convergence has been achieved in    27 iterations


     solvent charge    0.12783, renormalised to    0.15000

     Total number of solvent (in expand-cell)
     H2O           19.227322
     Na+            0.486954
     Cl-            0.352871

     Total charge of solvent (in expand-cell)
     H2O           -0.006257 e
     Na+            0.486954 e
     Cl-           -0.352871 e
     Total          0.127826 e

     Chemical potential of solvation (in expand-cell)
     H2O        GaussFluct   0.881383E+01 kcal/mol
     Na+        GaussFluct   0.556452E+03 kcal/mol
     Cl-        GaussFluct  -0.553114E+03 kcal/mol
     Total      GaussFluct   0.121515E+02 kcal/mol


     total cpu time spent up to now is      152.0 secs

     total energy              =    -746.07998387 Ry
     estimated scf accuracy    <       0.01007344 Ry

     iteration # 23     ecut=    60.00 Ry     beta= 0.10
     RMM-DIIS diagonalization
     ethr =  3.13E-05,  avg # of iterations =  2.9

     negative rho (up, down):  9.805E-04 0.000E+00

     Laue-RISM Calculation

     convergence threshold    = 3.270E-03
     iter. #     1  RMS(g-h-1)= 9.564E-02  nbox=  0
     iter. #    11  RMS(g-h-1)= 4.222E-03  nbox= 10
     iter. #    14  RMS(g-h-1)= 3.153E-03  nbox= 10

     End of Laue-RISM calculation


     convergence has been achieved in    14 iterations


     solvent charge    0.08620, renormalised to    0.15000

     Total number of solvent (in expand-cell)
     H2O           19.270121
     Na+            0.432396
     Cl-            0.360713

     Total charge of solvent (in expand-cell)
     H2O            0.014513 e
     Na+            0.432396 e
     Cl-           -0.360713 e
     Total          0.086196 e

     Chemical potential of solvation (in expand-cell)
     H2O        GaussFluct   0.942504E+01 kcal/mol
     Na+        GaussFluct   0.556816E+03 kcal/mol
     Cl-        GaussFluct  -0.557877E+03 kcal/mol
     Total      GaussFluct   0.836359E+01 kcal/mol


     total cpu time spent up to now is      157.8 secs

     total energy              =    -746.06078141 Ry
     estimated scf accuracy    <       0.03639660 Ry

     iteration # 24     ecut=    60.00 Ry     beta= 0.10
     RMM-DIIS diagonalization
     ethr =  3.13E-05,  avg # of iterations =  4.1

     negative rho (up, down):  4.023E-04 0.000E+00

     Laue-RISM Calculation

     convergence threshold    = 3.981E-03
     iter. #     1  RMS(g-h-1)= 6.408E-02  nbox=  0
     iter. #     9  RMS(g-h-1)= 3.883E-03  nbox=  8

     End of Laue-RISM calculation


     convergence has been achieved in     9 iterations


     solvent charge    0.06304, renormalised to    0.15000

     Total number of solvent (in expand-cell)
     H2O           19.261051
     Na+            0.454293
     Cl-            0.359373

     Total charge of solvent (in expand-cell)
     H2O           -0.031880 e
     Na+            0.454293 e
     Cl-           -0.359373 e
     Total          0.063040 e

     Chemical potential of solvation (in expand-cell)
     H2O        GaussFluct   0.807660E+01 kcal/mol
     Na+        GaussFluct   0.555151E+03 kcal/mol
     Cl-        GaussFluct  -0.554868E+03 kcal/mol
     Total      GaussFluct   0.835960E+01 kcal/mol


     total cpu time spent up to now is      165.5 secs

     total energy              =    -746.06292065 Ry
     estimated scf accuracy    <       0.38129006 Ry

     iteration # 25     ecut=    60.00 Ry     beta= 0.10
     RMM-DIIS diagonalization
     ethr =  3.13E-05,  avg # of iterations =  3.6

     negative rho (up, down):  3.594E-04 0.000E+00

     Laue-RISM Calculation

     convergence threshold    = 3.981E-03
     iter. #     1  RMS(g-h-1)= 1.307E-02  nbox=  0
     iter. #     6  RMS(g-h-1)= 3.889E-03  nbox=  5

     End of Laue-RISM calculation


     convergence has been achieved in     6 iterations


     solvent charge    0.06151, renormalised to    0.15000

     Total number of solvent (in expand-cell)
     H2O           19.257658
     Na+            0.458163
     Cl-            0.359416

     Total charge of solvent (in expand-cell)
     H2O           -0.037233 e
     Na+            0.458163 e
     Cl-           -0.359416 e
     Total          0.061515 e

     Chemical potential of solvation (in expand-cell)
     H2O        GaussFluct   0.802745E+01 kcal/mol
     Na+        GaussFluct   0.554651E+03 kcal/mol
     Cl-        GaussFluct  -0.554301E+03 kcal/mol
     Total      GaussFluct   0.837787E+01 kcal/mol


     total cpu time spent up to now is      172.2 secs

     total energy              =    -746.06664445 Ry
     estimated scf accuracy    <       0.24487737 Ry

     iteration # 26     ecut=    60.00 Ry     beta= 0.10
     RMM-DIIS diagonalization
     ethr =  3.13E-05,  avg # of iterations =  3.0

     negative rho (up, down):  3.712E-04 0.000E+00

     Laue-RISM Calculation

     convergence threshold    = 3.981E-03
     iter. #     1  RMS(g-h-1)= 4.744E-02  nbox=  0
     iter. #     6  RMS(g-h-1)= 3.969E-03  nbox=  5

     End of Laue-RISM calculation


     convergence has been achieved in     6 iterations


     solvent charge    0.06312, renormalised to    0.15000

     Total number of solvent (in expand-cell)
     H2O           19.246207
     Na+            0.448659
     Cl-            0.362567

     Total charge of solvent (in expand-cell)
     H2O           -0.022972 e
     Na+            0.448659 e
     Cl-           -0.362567 e
     Total          0.063120 e

     Chemical potential of solvation (in expand-cell)
     H2O        GaussFluct   0.859098E+01 kcal/mol
     Na+        GaussFluct   0.552464E+03 kcal/mol
     Cl-        GaussFluct  -0.553838E+03 kcal/mol
     Total      GaussFluct   0.721734E+01 kcal/mol


     total cpu time spent up to now is      177.9 secs

     total energy              =    -746.07467469 Ry
     estimated scf accuracy    <       0.21515907 Ry

     iteration # 27     ecut=    60.00 Ry     beta= 0.10
     RMM-DIIS diagonalization
     ethr =  3.13E-05,  avg # of iterations =  3.3

     negative rho (up, down):  3.496E-04 0.000E+00

     Laue-RISM Calculation

     convergence threshold    = 3.981E-03
     iter. #     1  RMS(g-h-1)= 2.705E-02  nbox=  0
     iter. #    11  RMS(g-h-1)= 3.843E-03  nbox= 10

     End of Laue-RISM calculation


     convergence has been achieved in    11 iterations


     solvent charge    0.06298, renormalised to    0.15000

     Total number of solvent (in expand-cell)
     H2O           19.265657
     Na+            0.445641
     Cl-            0.359935

     Total charge of solvent (in expand-cell)
     H2O           -0.022728 e
     Na+            0.445641 e
     Cl-           -0.359935 e
     Total          0.062978 e

     Chemical potential of solvation (in expand-cell)
     H2O        GaussFluct   0.839811E+01 kcal/mol
     Na+        GaussFluct   0.563923E+03 kcal/mol
     Cl-        GaussFluct  -0.561671E+03 kcal/mol
     Total      GaussFluct   0.106501E+02 kcal/mol


     total cpu time spent up to now is      184.2 secs

     total energy              =    -746.02672330 Ry
     estimated scf accuracy    <       0.30177593 Ry

     iteration # 28     ecut=    60.00 Ry     beta= 0.10
     RMM-DIIS diagonalization
     ethr =  3.13E-05,  avg # of iterations =  3.5

     negative rho (up, down):  3.350E-04 0.000E+00

     Laue-RISM Calculation

     convergence threshold    = 3.981E-03
     iter. #     1  RMS(g-h-1)= 5.108E-03  nbox=  0
     iter. #     3  RMS(g-h-1)= 3.777E-03  nbox=  2

     End of Laue-RISM calculation


     convergence has been achieved in     3 iterations


     solvent charge    0.08774, renormalised to    0.15000

     Total number of solvent (in expand-cell)
     H2O           19.267678
     Na+            0.447562
     Cl-            0.359776

     Total charge of solvent (in expand-cell)
     H2O           -0.000042 e
     Na+            0.447562 e
     Cl-           -0.359776 e
     Total          0.087744 e

     Chemical potential of solvation (in expand-cell)
     H2O        GaussFluct   0.845637E+01 kcal/mol
     Na+        GaussFluct   0.563428E+03 kcal/mol
     Cl-        GaussFluct  -0.561205E+03 kcal/mol
     Total      GaussFluct   0.106794E+02 kcal/mol


     total cpu time spent up to now is      190.7 secs

     total energy              =    -746.07841769 Ry
     estimated scf accuracy    <       0.14693416 Ry

     iteration # 29     ecut=    60.00 Ry     beta= 0.10
     RMM-DIIS diagonalization
     ethr =  3.13E-05,  avg # of iterations =  2.7

     negative rho (up, down):  5.953E-04 0.000E+00

     Laue-RISM Calculation

     convergence threshold    = 3.981E-03
     iter. #     1  RMS(g-h-1)= 2.099E-02  nbox=  0
     iter. #     6  RMS(g-h-1)= 3.819E-03  nbox=  5

     End of Laue-RISM calculation


     convergence has been achieved in     6 iterations


     solvent charge    0.05318, renormalised to    0.15000

     Total number of solvent (in expand-cell)
     H2O           19.273001
     Na+            0.433134
     Cl-            0.360214

     Total charge of solvent (in expand-cell)
     H2O           -0.019745 e
     Na+            0.433134 e
     Cl-           -0.360214 e
     Total          0.053176 e

     Chemical potential of solvation (in expand-cell)
     H2O        GaussFluct   0.842087E+01 kcal/mol
     Na+        GaussFluct   0.565618E+03 kcal/mol
     Cl-        GaussFluct  -0.563629E+03 kcal/mol
     Total      GaussFluct   0.104097E+02 kcal/mol


     total cpu time spent up to now is      195.9 secs

     total energy              =    -746.05544433 Ry
     estimated scf accuracy    <       0.21991217 Ry

     iteration # 30     ecut=    60.00 Ry     beta= 0.10
     RMM-DIIS diagonalization
     ethr =  3.13E-05,  avg # of iterations =  2.6

     negative rho (up, down):  8.601E-04 0.000E+00

     Laue-RISM Calculation

     convergence threshold    = 3.981E-03
     iter. #     1  RMS(g-h-1)= 2.938E-02  nbox=  0
     iter. #     7  RMS(g-h-1)= 3.817E-03  nbox=  6

     End of Laue-RISM calculation


     convergence has been achieved in     7 iterations


     solvent charge    0.05225, renormalised to    0.15000

     Total number of solvent (in expand-cell)
     H2O           19.289087
     Na+            0.427665
     Cl-            0.359460

     Total charge of solvent (in expand-cell)
     H2O           -0.015952 e
     Na+            0.427665 e
     Cl-           -0.359460 e
     Total          0.052254 e

     Chemical potential of solvation (in expand-cell)
     H2O        GaussFluct   0.805431E+01 kcal/mol
     Na+        GaussFluct   0.569357E+03 kcal/mol
     Cl-        GaussFluct  -0.566504E+03 kcal/mol
     Total      GaussFluct   0.109073E+02 kcal/mol


     total cpu time spent up to now is      201.1 secs

     total energy              =    -746.05887060 Ry
     estimated scf accuracy    <       0.13545361 Ry

     iteration # 31     ecut=    60.00 Ry     beta= 0.10
     RMM-DIIS diagonalization
     ethr =  3.13E-05,  avg # of iterations =  2.7

     negative rho (up, down):  5.640E-04 0.000E+00

     Laue-RISM Calculation

     convergence threshold    = 3.981E-03
     iter. #     1  RMS(g-h-1)= 2.946E-02  nbox=  0
     iter. #     5  RMS(g-h-1)= 3.712E-03  nbox=  4

     End of Laue-RISM calculation


     convergence has been achieved in     5 iterations


     solvent charge    0.08661, renormalised to    0.15000

     Total number of solvent (in expand-cell)
     H2O           19.273531
     Na+            0.440046
     Cl-            0.359824

     Total charge of solvent (in expand-cell)
     H2O            0.006386 e
     Na+            0.440046 e
     Cl-           -0.359824 e
     Total          0.086608 e

     Chemical potential of solvation (in expand-cell)
     H2O        GaussFluct   0.877242E+01 kcal/mol
     Na+        GaussFluct   0.562235E+03 kcal/mol
     Cl-        GaussFluct  -0.560980E+03 kcal/mol
     Total      GaussFluct   0.100276E+02 kcal/mol


     total cpu time spent up to now is      206.2 secs

     total energy              =    -746.07220245 Ry
     estimated scf accuracy    <       0.41064650 Ry

     iteration # 32     ecut=    60.00 Ry     beta= 0.10
     RMM-DIIS diagonalization
     ethr =  3.13E-05,  avg # of iterations =  2.6

     negative rho (up, down):  5.555E-04 0.000E+00

     Laue-RISM Calculation

     convergence threshold    = 3.981E-03
     iter. #     1  RMS(g-h-1)= 1.397E-02  nbox=  0
     iter. #     4  RMS(g-h-1)= 3.038E-03  nbox=  3

     End of Laue-RISM calculation


     convergence has been achieved in     4 iterations


     solvent charge    0.09156, renormalised to    0.15000

     Total number of solvent (in expand-cell)
     H2O           19.278479
     Na+            0.443583
     Cl-            0.358220

     Total charge of solvent (in expand-cell)
     H2O            0.006199 e
     Na+            0.443583 e
     Cl-           -0.358220 e
     Total          0.091562 e

     Chemical potential of solvation (in expand-cell)
     H2O        GaussFluct   0.922598E+01 kcal/mol
     Na+        GaussFluct   0.559995E+03 kcal/mol
     Cl-        GaussFluct  -0.559124E+03 kcal/mol
     Total      GaussFluct   0.100972E+02 kcal/mol


     total cpu time spent up to now is      211.2 secs

     total energy              =    -746.06730867 Ry
     estimated scf accuracy    <       0.09459137 Ry

     iteration # 33     ecut=    60.00 Ry     beta= 0.10
     RMM-DIIS diagonalization
     ethr =  3.13E-05,  avg # of iterations =  2.6

     negative rho (up, down):  7.003E-04 0.000E+00

     Laue-RISM Calculation

     convergence threshold    = 9.308E-04
     iter. #     1  RMS(g-h-1)= 1.405E-02  nbox=  0
     iter. #    11  RMS(g-h-1)= 1.562E-03  nbox= 10
     iter. #    21  RMS(g-h-1)= 9.724E-04  nbox= 10
     iter. #    24  RMS(g-h-1)= 9.038E-04  nbox= 10

     End of Laue-RISM calculation


     convergence has been achieved in    24 iterations


     solvent charge    0.10876, renormalised to    0.15000

     Total number of solvent (in expand-cell)
     H2O           19.274598
     Na+            0.464993
     Cl-            0.347486

     Total charge of solvent (in expand-cell)
     H2O           -0.008747 e
     Na+            0.464993 e
     Cl-           -0.347486 e
     Total          0.108760 e

     Chemical potential of solvation (in expand-cell)
     H2O        GaussFluct   0.713243E+01 kcal/mol
     Na+        GaussFluct   0.562756E+03 kcal/mol
     Cl-        GaussFluct  -0.558846E+03 kcal/mol
     Total      GaussFluct   0.110421E+02 kcal/mol


     total cpu time spent up to now is      216.9 secs

     total energy              =    -746.07469002 Ry
     estimated scf accuracy    <       0.01395262 Ry

     iteration # 34     ecut=    60.00 Ry     beta= 0.10
     RMM-DIIS diagonalization
     ethr =  3.13E-05,  avg # of iterations =  2.6

     negative rho (up, down):  3.916E-04 0.000E+00

     Laue-RISM Calculation

     convergence threshold    = 3.981E-03
     iter. #     1  RMS(g-h-1)= 2.641E-02  nbox=  0
     iter. #     5  RMS(g-h-1)= 3.212E-03  nbox=  4

     End of Laue-RISM calculation


     convergence has been achieved in     5 iterations


     solvent charge    0.12697, renormalised to    0.15000

     Total number of solvent (in expand-cell)
     H2O           19.278565
     Na+            0.475931
     Cl-            0.343774

     Total charge of solvent (in expand-cell)
     H2O           -0.005184 e
     Na+            0.475931 e
     Cl-           -0.343774 e
     Total          0.126973 e

     Chemical potential of solvation (in expand-cell)
     H2O        GaussFluct   0.777829E+01 kcal/mol
     Na+        GaussFluct   0.558255E+03 kcal/mol
     Cl-        GaussFluct  -0.554832E+03 kcal/mol
     Total      GaussFluct   0.112014E+02 kcal/mol


     total cpu time spent up to now is      221.9 secs

     total energy              =    -746.07322328 Ry
     estimated scf accuracy    <       0.09506956 Ry

     iteration # 35     ecut=    60.00 Ry     beta= 0.10
     RMM-DIIS diagonalization
     ethr =  3.13E-05,  avg # of iterations =  2.6

     negative rho (up, down):  2.895E-04 0.000E+00

     Laue-RISM Calculation

     convergence threshold    = 1.938E-04
     iter. #     1  RMS(g-h-1)= 4.022E-02  nbox=  0
     iter. #    11  RMS(g-h-1)= 1.877E-03  nbox= 10
     iter. #    21  RMS(g-h-1)= 9.339E-04  nbox= 10
     iter. #    31  RMS(g-h-1)= 7.547E-04  nbox= 10
     iter. #    41  RMS(g-h-1)= 6.720E-04  nbox= 10
     iter. #    51  RMS(g-h-1)= 5.516E-04  nbox= 10
     iter. #    61  RMS(g-h-1)= 5.037E-04  nbox=  4
     iter. #    71  RMS(g-h-1)= 4.632E-04  nbox= 10
     iter. #    81  RMS(g-h-1)= 4.236E-04  nbox=  8
     iter. #    91  RMS(g-h-1)= 3.734E-04  nbox=  2
     iter. #   101  RMS(g-h-1)= 3.341E-04  nbox= 10
     iter. #   111  RMS(g-h-1)= 2.706E-04  nbox= 10
     iter. #   121  RMS(g-h-1)= 2.219E-04  nbox= 10
     iter. #   131  RMS(g-h-1)= 2.022E-04  nbox= 10
     iter. #   140  RMS(g-h-1)= 1.929E-04  nbox=  6

     End of Laue-RISM calculation


     convergence has been achieved in   140 iterations


     solvent charge    0.14413, renormalised to    0.15000

     Total number of solvent (in expand-cell)
     H2O           19.289712
     Na+            0.489507
     Cl-            0.342902

     Total charge of solvent (in expand-cell)
     H2O           -0.002472 e
     Na+            0.489507 e
     Cl-           -0.342902 e
     Total          0.144133 e

     Chemical potential of solvation (in expand-cell)
     H2O        GaussFluct   0.686177E+01 kcal/mol
     Na+        GaussFluct   0.562384E+03 kcal/mol
     Cl-        GaussFluct  -0.558452E+03 kcal/mol
     Total      GaussFluct   0.107936E+02 kcal/mol


     total cpu time spent up to now is      231.7 secs

     total energy              =    -746.09007952 Ry
     estimated scf accuracy    <       0.00421318 Ry

     iteration # 36     ecut=    60.00 Ry     beta= 0.10
     RMM-DIIS diagonalization
     ethr =  1.31E-05,  avg # of iterations =  3.5

     negative rho (up, down):  2.862E-04 0.000E+00

     Laue-RISM Calculation

     convergence threshold    = 1.839E-03
     iter. #     1  RMS(g-h-1)= 7.830E-03  nbox=  0
     iter. #     4  RMS(g-h-1)= 1.069E-03  nbox=  3

     End of Laue-RISM calculation


     convergence has been achieved in     4 iterations


     solvent charge    0.12670, renormalised to    0.15000

     Total number of solvent (in expand-cell)
     H2O           19.295269
     Na+            0.485243
     Cl-            0.342850

     Total charge of solvent (in expand-cell)
     H2O           -0.015695 e
     Na+            0.485243 e
     Cl-           -0.342850 e
     Total          0.126698 e

     Chemical potential of solvation (in expand-cell)
     H2O        GaussFluct   0.672254E+01 kcal/mol
     Na+        GaussFluct   0.563684E+03 kcal/mol
     Cl-        GaussFluct  -0.559437E+03 kcal/mol
     Total      GaussFluct   0.109697E+02 kcal/mol


     total cpu time spent up to now is      238.2 secs

     total energy              =    -746.08162098 Ry
     estimated scf accuracy    <       0.02346496 Ry

     iteration # 37     ecut=    60.00 Ry     beta= 0.10
     RMM-DIIS diagonalization
     ethr =  1.31E-05,  avg # of iterations =  2.7

     negative rho (up, down):  3.105E-04 0.000E+00

     Laue-RISM Calculation

     convergence threshold    = 1.543E-03
     iter. #     1  RMS(g-h-1)= 4.137E-03  nbox=  0
     iter. #     4  RMS(g-h-1)= 9.322E-04  nbox=  3

     End of Laue-RISM calculation


     convergence has been achieved in     4 iterations


     solvent charge    0.12888, renormalised to    0.15000

     Total number of solvent (in expand-cell)
     H2O           19.294709
     Na+            0.482605
     Cl-            0.343413

     Total charge of solvent (in expand-cell)
     H2O           -0.010316 e
     Na+            0.482605 e
     Cl-           -0.343413 e
     Total          0.128876 e

     Chemical potential of solvation (in expand-cell)
     H2O        GaussFluct   0.665258E+01 kcal/mol
     Na+        GaussFluct   0.564358E+03 kcal/mol
     Cl-        GaussFluct  -0.560059E+03 kcal/mol
     Total      GaussFluct   0.109509E+02 kcal/mol


     total cpu time spent up to now is      243.4 secs

     total energy              =    -746.08449314 Ry
     estimated scf accuracy    <       0.02051644 Ry

     iteration # 38     ecut=    60.00 Ry     beta= 0.10
     RMM-DIIS diagonalization
     ethr =  1.31E-05,  avg # of iterations =  2.6

     negative rho (up, down):  3.503E-04 0.000E+00

     Laue-RISM Calculation

     convergence threshold    = 3.981E-03
     iter. #     1  RMS(g-h-1)= 1.095E-02  nbox=  0
     iter. #     4  RMS(g-h-1)= 2.251E-03  nbox=  3

     End of Laue-RISM calculation


     convergence has been achieved in     4 iterations


     solvent charge    0.14282, renormalised to    0.15000

     Total number of solvent (in expand-cell)
     H2O           19.288144
     Na+            0.484999
     Cl-            0.343559

     Total charge of solvent (in expand-cell)
     H2O            0.001379 e
     Na+            0.484999 e
     Cl-           -0.343559 e
     Total          0.142819 e

     Chemical potential of solvation (in expand-cell)
     H2O        GaussFluct   0.640197E+01 kcal/mol
     Na+        GaussFluct   0.565358E+03 kcal/mol
     Cl-        GaussFluct  -0.560608E+03 kcal/mol
     Total      GaussFluct   0.111513E+02 kcal/mol


     total cpu time spent up to now is      248.4 secs

     total energy              =    -746.09716956 Ry
     estimated scf accuracy    <       0.04333829 Ry

     iteration # 39     ecut=    60.00 Ry     beta= 0.10
     RMM-DIIS diagonalization
     ethr =  1.31E-05,  avg # of iterations =  2.7

     negative rho (up, down):  2.781E-04 0.000E+00

     Laue-RISM Calculation

     convergence threshold    = 3.981E-03
     iter. #     1  RMS(g-h-1)= 5.012E-03  nbox=  0
     iter. #     2  RMS(g-h-1)= 3.195E-03  nbox=  1

     End of Laue-RISM calculation


     convergence has been achieved in     2 iterations


     solvent charge    0.16938, renormalised to    0.15000

     Total number of solvent (in expand-cell)
     H2O           19.290311
     Na+            0.487345
     Cl-            0.342932

     Total charge of solvent (in expand-cell)
     H2O            0.024963 e
     Na+            0.487345 e
     Cl-           -0.342932 e
     Total          0.169377 e

     Chemical potential of solvation (in expand-cell)
     H2O        GaussFluct   0.648757E+01 kcal/mol
     Na+        GaussFluct   0.564971E+03 kcal/mol
     Cl-        GaussFluct  -0.560139E+03 kcal/mol
     Total      GaussFluct   0.113191E+02 kcal/mol


     total cpu time spent up to now is      253.4 secs

     total energy              =    -746.11087987 Ry
     estimated scf accuracy    <       0.14678921 Ry

     iteration # 40     ecut=    60.00 Ry     beta= 0.10
     RMM-DIIS diagonalization
     ethr =  1.31E-05,  avg # of iterations =  2.7

     negative rho (up, down):  2.999E-04 0.000E+00

     Laue-RISM Calculation

     convergence threshold    = 3.981E-03
     iter. #     1  RMS(g-h-1)= 4.606E-03  nbox=  0
     iter. #     2  RMS(g-h-1)= 3.563E-03  nbox=  1

     End of Laue-RISM calculation


     convergence has been achieved in     2 iterations


     solvent charge    0.08943, renormalised to    0.15000

     Total number of solvent (in expand-cell)
     H2O           19.291295
     Na+            0.482799
     Cl-            0.343556

     Total charge of solvent (in expand-cell)
     H2O           -0.049813 e
     Na+            0.482799 e
     Cl-           -0.343556 e
     Total          0.089430 e

     Chemical potential of solvation (in expand-cell)
     H2O        GaussFluct   0.637194E+01 kcal/mol
     Na+        GaussFluct   0.565444E+03 kcal/mol
     Cl-        GaussFluct  -0.560723E+03 kcal/mol
     Total      GaussFluct   0.110935E+02 kcal/mol


     total cpu time spent up to now is      258.5 secs

     total energy              =    -746.05453046 Ry
     estimated scf accuracy    <       0.24649705 Ry

     iteration # 41     ecut=    60.00 Ry     beta= 0.10
     RMM-DIIS diagonalization
     ethr =  1.31E-05,  avg # of iterations =  2.7

     negative rho (up, down):  3.407E-04 0.000E+00

     Laue-RISM Calculation

     convergence threshold    = 1.649E-03
     iter. #     1  RMS(g-h-1)= 9.973E-03  nbox=  0
     iter. #     8  RMS(g-h-1)= 1.616E-03  nbox=  7

     End of Laue-RISM calculation


     convergence has been achieved in     8 iterations


     solvent charge    0.12076, renormalised to    0.15000

     Total number of solvent (in expand-cell)
     H2O           19.295504
     Na+            0.478026
     Cl-            0.344403

     Total charge of solvent (in expand-cell)
     H2O           -0.012866 e
     Na+            0.478026 e
     Cl-           -0.344403 e
     Total          0.120757 e

     Chemical potential of solvation (in expand-cell)
     H2O        GaussFluct   0.654132E+01 kcal/mol
     Na+        GaussFluct   0.566057E+03 kcal/mol
     Cl-        GaussFluct  -0.561510E+03 kcal/mol
     Total      GaussFluct   0.110877E+02 kcal/mol


     total cpu time spent up to now is      263.7 secs

     total energy              =    -746.08306252 Ry
     estimated scf accuracy    <       0.02158705 Ry

     iteration # 42     ecut=    60.00 Ry     beta= 0.10
     RMM-DIIS diagonalization
     ethr =  1.31E-05,  avg # of iterations =  2.6

     negative rho (up, down):  3.448E-04 0.000E+00

     Laue-RISM Calculation

     convergence threshold    = 3.981E-03
     iter. #     1  RMS(g-h-1)= 1.056E-02  nbox=  0
     iter. #     4  RMS(g-h-1)= 2.307E-03  nbox=  3

     End of Laue-RISM calculation


     convergence has been achieved in     4 iterations


     solvent charge    0.09399, renormalised to    0.15000

     Total number of solvent (in expand-cell)
     H2O           19.302478
     Na+            0.469689
     Cl-            0.345812

     Total charge of solvent (in expand-cell)
     H2O           -0.029889 e
     Na+            0.469689 e
     Cl-           -0.345812 e
     Total          0.093988 e

     Chemical potential of solvation (in expand-cell)
     H2O        GaussFluct   0.653943E+01 kcal/mol
     Na+        GaussFluct   0.565969E+03 kcal/mol
     Cl-        GaussFluct  -0.561994E+03 kcal/mol
     Total      GaussFluct   0.105141E+02 kcal/mol


     total cpu time spent up to now is      268.7 secs

     total energy              =    -746.06778571 Ry
     estimated scf accuracy    <       0.10625219 Ry

     iteration # 43     ecut=    60.00 Ry     beta= 0.10
     RMM-DIIS diagonalization
     ethr =  1.31E-05,  avg # of iterations =  2.6

     negative rho (up, down):  2.394E-04 0.000E+00

     Laue-RISM Calculation

     convergence threshold    = 2.613E-03
     iter. #     1  RMS(g-h-1)= 7.251E-03  nbox=  0
     iter. #     4  RMS(g-h-1)= 1.624E-03  nbox=  3

     End of Laue-RISM calculation


     convergence has been achieved in     4 iterations


     solvent charge    0.13786, renormalised to    0.15000

     Total number of solvent (in expand-cell)
     H2O           19.302374
     Na+            0.475666
     Cl-            0.345322

     Total charge of solvent (in expand-cell)
     H2O            0.007513 e
     Na+            0.475666 e
     Cl-           -0.345322 e
     Total          0.137857 e

     Chemical potential of solvation (in expand-cell)
     H2O        GaussFluct   0.677482E+01 kcal/mol
     Na+        GaussFluct   0.563616E+03 kcal/mol
     Cl-        GaussFluct  -0.560083E+03 kcal/mol
     Total      GaussFluct   0.103078E+02 kcal/mol


     total cpu time spent up to now is      273.7 secs

     total energy              =    -746.09329425 Ry
     estimated scf accuracy    <       0.03067233 Ry

     iteration # 44     ecut=    60.00 Ry     beta= 0.10
     RMM-DIIS diagonalization
     ethr =  1.31E-05,  avg # of iterations =  2.6

     negative rho (up, down):  2.440E-04 0.000E+00

     Laue-RISM Calculation

     convergence threshold    = 3.981E-03
     iter. #     1  RMS(g-h-1)= 2.106E-03  nbox=  0

     End of Laue-RISM calculation


     convergence has been achieved in     1 iterations


     solvent charge    0.11747, renormalised to    0.15000

     Total number of solvent (in expand-cell)
     H2O           19.303234
     Na+            0.474695
     Cl-            0.345496

     Total charge of solvent (in expand-cell)
     H2O           -0.011727 e
     Na+            0.474695 e
     Cl-           -0.345496 e
     Total          0.117472 e

     Chemical potential of solvation (in expand-cell)
     H2O        GaussFluct   0.673337E+01 kcal/mol
     Na+        GaussFluct   0.563776E+03 kcal/mol
     Cl-        GaussFluct  -0.560252E+03 kcal/mol
     Total      GaussFluct   0.102569E+02 kcal/mol


     total cpu time spent up to now is      278.6 secs

     total energy              =    -746.08268828 Ry
     estimated scf accuracy    <       0.04602886 Ry

     iteration # 45     ecut=    60.00 Ry     beta= 0.10
     RMM-DIIS diagonalization
     ethr =  1.31E-05,  avg # of iterations =  2.6

     negative rho (up, down):  2.474E-04 0.000E+00

     Laue-RISM Calculation

     convergence threshold    = 1.116E-03
     iter. #     1  RMS(g-h-1)= 5.347E-03  nbox=  0
     iter. #    10  RMS(g-h-1)= 1.028E-03  nbox=  9

     End of Laue-RISM calculation


     convergence has been achieved in    10 iterations


     solvent charge    0.12610, renormalised to    0.15000

     Total number of solvent (in expand-cell)
     H2O           19.313348
     Na+            0.474823
     Cl-            0.344273

     Total charge of solvent (in expand-cell)
     H2O           -0.004447 e
     Na+            0.474823 e
     Cl-           -0.344273 e
     Total          0.126103 e

     Chemical potential of solvation (in expand-cell)
     H2O        GaussFluct   0.665843E+01 kcal/mol
     Na+        GaussFluct   0.564417E+03 kcal/mol
     Cl-        GaussFluct  -0.560533E+03 kcal/mol
     Total      GaussFluct   0.105424E+02 kcal/mol


     total cpu time spent up to now is      283.9 secs

     total energy              =    -746.08391398 Ry
     estimated scf accuracy    <       0.01602777 Ry

     iteration # 46     ecut=    60.00 Ry     beta= 0.10
     RMM-DIIS diagonalization
     ethr =  1.31E-05,  avg # of iterations =  2.6

     negative rho (up, down):  2.460E-04 0.000E+00

     Laue-RISM Calculation

     convergence threshold    = 3.869E-03
     iter. #     1  RMS(g-h-1)= 1.589E-03  nbox=  0

     End of Laue-RISM calculation


     convergence has been achieved in     1 iterations


     solvent charge    0.11887, renormalised to    0.15000

     Total number of solvent (in expand-cell)
     H2O           19.315772
     Na+            0.474823
     Cl-            0.344282

     Total charge of solvent (in expand-cell)
     H2O           -0.011673 e
     Na+            0.474823 e
     Cl-           -0.344282 e
     Total          0.118868 e

     Chemical potential of solvation (in expand-cell)
     H2O        GaussFluct   0.664845E+01 kcal/mol
     Na+        GaussFluct   0.564390E+03 kcal/mol
     Cl-        GaussFluct  -0.560524E+03 kcal/mol
     Total      GaussFluct   0.105140E+02 kcal/mol


     total cpu time spent up to now is      288.7 secs

     total energy              =    -746.07989544 Ry
     estimated scf accuracy    <       0.04138368 Ry

     iteration # 47     ecut=    60.00 Ry     beta= 0.10
     RMM-DIIS diagonalization
     ethr =  1.31E-05,  avg # of iterations =  2.6

     negative rho (up, down):  2.559E-04 0.000E+00

     Laue-RISM Calculation

     convergence threshold    = 2.115E-03
     iter. #     1  RMS(g-h-1)= 1.843E-03  nbox=  0

     End of Laue-RISM calculation


     convergence has been achieved in     1 iterations


     solvent charge    0.14257, renormalised to    0.15000

     Total number of solvent (in expand-cell)
     H2O           19.311305
     Na+            0.475179
     Cl-            0.344230

     Total charge of solvent (in expand-cell)
     H2O            0.011621 e
     Na+            0.475179 e
     Cl-           -0.344230 e
     Total          0.142570 e

     Chemical potential of solvation (in expand-cell)
     H2O        GaussFluct   0.662873E+01 kcal/mol
     Na+        GaussFluct   0.564645E+03 kcal/mol
     Cl-        GaussFluct  -0.560655E+03 kcal/mol
     Total      GaussFluct   0.106182E+02 kcal/mol


     total cpu time spent up to now is      293.6 secs

     total energy              =    -746.09618838 Ry
     estimated scf accuracy    <       0.02610596 Ry

     iteration # 48     ecut=    60.00 Ry     beta= 0.10
     RMM-DIIS diagonalization
     ethr =  1.31E-05,  avg # of iterations =  2.6

     negative rho (up, down):  2.191E-04 0.000E+00

     Laue-RISM Calculation

     convergence threshold    = 3.981E-03
     iter. #     1  RMS(g-h-1)= 6.658E-03  nbox=  0
     iter. #     3  RMS(g-h-1)= 2.475E-03  nbox=  2

     End of Laue-RISM calculation


     convergence has been achieved in     3 iterations


     solvent charge    0.13495, renormalised to    0.15000

     Total number of solvent (in expand-cell)
     H2O           19.327137
     Na+            0.477171
     Cl-            0.344478

     Total charge of solvent (in expand-cell)
     H2O            0.002258 e
     Na+            0.477171 e
     Cl-           -0.344478 e
     Total          0.134951 e

     Chemical potential of solvation (in expand-cell)
     H2O        GaussFluct   0.678050E+01 kcal/mol
     Na+        GaussFluct   0.563017E+03 kcal/mol
     Cl-        GaussFluct  -0.559614E+03 kcal/mol
     Total      GaussFluct   0.101833E+02 kcal/mol


     total cpu time spent up to now is      298.5 secs

     total energy              =    -746.08780494 Ry
     estimated scf accuracy    <       0.08843966 Ry

     iteration # 49     ecut=    60.00 Ry     beta= 0.10
     RMM-DIIS diagonalization
     ethr =  1.31E-05,  avg # of iterations =  2.8

     negative rho (up, down):  2.381E-04 0.000E+00

     Laue-RISM Calculation

     convergence threshold    = 6.388E-04
     iter. #     1  RMS(g-h-1)= 3.327E-03  nbox=  0
     iter. #    11  RMS(g-h-1)= 6.469E-04  nbox= 10
     iter. #    12  RMS(g-h-1)= 5.879E-04  nbox= 10

     End of Laue-RISM calculation


[...]
    -7.9576  -7.9576  -6.7551  -6.7551  -6.2732  -6.2732  -5.5335  -5.5335
    -4.7937  -4.7936  -3.7309  -3.7303  -3.2290  -3.2273  -2.9743  -2.9736

          k = 0.1500 0.4896 0.0000 ( 23872 PWs)   bands (ev):

   -66.3445 -66.3445 -66.2926 -66.2926 -40.8329 -40.8329 -40.7541 -40.7541
   -40.5367 -40.5367 -40.4437 -40.4437 -40.3567 -40.3567 -40.2775 -40.2775
   -16.7908 -16.7908 -11.6295 -11.6295 -10.3333 -10.3333 -10.1396 -10.1396
    -8.1933  -8.1933  -6.0309  -6.0309  -5.8622  -5.8622  -5.4486  -5.4486
    -4.1974  -4.1972  -3.5458  -3.5444  -2.6259  -2.6252  -2.2628  -2.2623

          k = 0.1500 0.6050 0.0000 ( 23907 PWs)   bands (ev):

   -66.3394 -66.3394 -66.2889 -66.2889 -40.8551 -40.8551 -40.7759 -40.7759
   -40.5307 -40.5307 -40.4563 -40.4563 -40.3630 -40.3630 -40.2882 -40.2882
   -16.7547 -16.7547 -11.7149 -11.7149 -10.3223 -10.3223 -10.2071 -10.2071
    -8.2567  -8.2567  -5.8223  -5.8223  -5.6580  -5.6580  -5.4562  -5.4562
    -3.9671  -3.9671  -3.6067  -3.6067  -2.4891  -2.4841  -2.2166  -2.2165

          k = 0.1500-0.4329 0.0000 ( 23870 PWs)   bands (ev):

   -66.3532 -66.3532 -66.2991 -66.2991 -40.8057 -40.8057 -40.7177 -40.7177
   -40.5439 -40.5439 -40.4179 -40.4179 -40.3375 -40.3375 -40.2578 -40.2578
   -16.8550 -16.8550 -11.4867 -11.4867 -10.3577 -10.3577 -10.0301 -10.0301
    -8.0970  -8.0970  -6.3944  -6.3944  -6.1216  -6.1216  -5.4648  -5.4648
    -4.4884  -4.4884  -3.5758  -3.5753  -2.8848  -2.8846  -2.4727  -2.4712

          k = 0.1500-0.3176 0.0000 ( 23803 PWs)   bands (ev):

   -66.3800 -66.3800 -66.3195 -66.3195 -40.7748 -40.7748 -40.5864 -40.5864
   -40.4901 -40.4901 -40.3865 -40.3865 -40.2665 -40.2665 -40.1981 -40.1981
   -17.0798 -17.0798 -11.0343 -11.0343 -10.4643 -10.4643  -9.8662  -9.8662
    -7.8117  -7.8117  -7.0689  -7.0689  -6.2067  -6.2067  -5.7375  -5.7375
    -5.0855  -5.0855  -3.8576  -3.8571  -3.5883  -3.5869  -3.5000  -3.4979

          k = 0.1500-0.2023 0.0000 ( 23771 PWs)   bands (ev):

   -66.4095 -66.4095 -66.3425 -66.3425 -40.8054 -40.8054 -40.4530 -40.4530
   -40.3652 -40.3652 -40.3303 -40.3303 -40.1935 -40.1935 -40.1270 -40.1270
   -17.3675 -17.3675 -11.0078 -11.0078 -10.5264 -10.5264  -9.4765  -9.4765
    -7.5576  -7.5576  -7.1814  -7.1814  -6.3806  -6.3806  -5.7506  -5.7506
    -5.3811  -5.3811  -4.6971  -4.6964  -4.2377  -4.2349  -3.7812  -3.7811

          k = 0.1500-0.0870 0.0000 ( 23700 PWs)   bands (ev):

   -66.4304 -66.4304 -66.3593 -66.3593 -40.8387 -40.8387 -40.4164 -40.4164
   -40.2677 -40.2677 -40.1981 -40.1981 -40.1585 -40.1585 -40.0817 -40.0817
   -17.5960 -17.5960 -11.5024 -11.5024 -10.0676 -10.0676  -9.2696  -9.2696
    -7.5546  -7.5546  -6.8674  -6.8674  -6.4964  -6.4964  -5.6997  -5.6997
    -5.6588  -5.6588  -4.8558  -4.8511  -4.6921  -4.6920  -3.5119  -3.5117

          k = 0.1500 0.0284 0.0000 ( 23697 PWs)   bands (ev):

   -66.4352 -66.4352 -66.3631 -66.3631 -40.8468 -40.8468 -40.4142 -40.4142
   -40.2337 -40.2337 -40.1790 -40.1790 -40.1384 -40.1384 -40.0769 -40.0769
   -17.6501 -17.6501 -11.6153 -11.6153  -9.9335  -9.9335  -9.2833  -9.2833
    -7.5300  -7.5300  -6.8369  -6.8369  -6.3968  -6.3968  -5.7609  -5.7609
    -5.6926  -5.6926  -4.9834  -4.9833  -4.6662  -4.6595  -3.7649  -3.7644

          k = 0.2500 0.2010 0.0000 ( 23858 PWs)   bands (ev):

   -66.3899 -66.3899 -66.3271 -66.3271 -40.7836 -40.7836 -40.5727 -40.5727
   -40.4462 -40.4462 -40.3807 -40.3807 -40.2366 -40.2366 -40.1427 -40.1427
   -17.1770 -17.1770 -11.1644 -11.1644 -10.5752 -10.5752  -9.3714  -9.3714
    -8.2431  -8.2431  -6.6377  -6.6377  -6.4521  -6.4521  -5.4843  -5.4843
    -4.8076  -4.8056  -4.1157  -4.1098  -3.9853  -3.9821  -3.5614  -3.5511

          k = 0.2500 0.3164 0.0000 ( 23867 PWs)   bands (ev):

   -66.3664 -66.3664 -66.3090 -66.3090 -40.7774 -40.7774 -40.6540 -40.6540
   -40.5267 -40.5267 -40.4028 -40.4028 -40.3090 -40.3090 -40.2306 -40.2306
   -16.9600 -16.9600 -11.2656 -11.2656 -10.3493 -10.3493  -9.9680  -9.9680
    -7.9578  -7.9578  -6.7564  -6.7564  -6.2739  -6.2739  -5.5384  -5.5384
    -4.7927  -4.7927  -3.7313  -3.7309  -3.2271  -3.2260  -2.9666  -2.9654

          k = 0.2500 0.4317 0.0000 ( 23845 PWs)   bands (ev):

   -66.3446 -66.3446 -66.2926 -66.2926 -40.7841 -40.7841 -40.6931 -40.6931
   -40.5625 -40.5625 -40.4504 -40.4504 -40.3906 -40.3906 -40.3267 -40.3267
   -16.7685 -16.7685 -11.3169 -11.3169 -10.5962 -10.5962 -10.0454 -10.0454
    -7.2280  -7.2280  -7.0004  -7.0004  -6.4107  -6.4107  -5.5930  -5.5930
    -4.4259  -4.4259  -3.4723  -3.4719  -2.5209  -2.5196  -2.2209  -2.2179

          k = 0.2500 0.5470 0.0000 ( 23873 PWs)   bands (ev):

   -66.3331 -66.3331 -66.2843 -66.2843 -40.7761 -40.7761 -40.7073 -40.7073
   -40.5805 -40.5805 -40.5202 -40.5202 -40.4031 -40.4031 -40.3788 -40.3788
   -16.6706 -16.6706 -11.3869 -11.3869 -10.7859 -10.7859  -9.9937  -9.9937
    -7.3215  -7.3215  -6.3990  -6.3990  -6.2723  -6.2723  -5.7147  -5.7147
    -3.9891  -3.9891  -3.6337  -3.6336  -2.3696  -2.3694  -2.2618  -2.2604

          k = 0.2500 0.6623 0.0000 ( 23852 PWs)   bands (ev):

   -66.3366 -66.3366 -66.2868 -66.2868 -40.7867 -40.7867 -40.7069 -40.7069
   -40.5766 -40.5766 -40.4825 -40.4825 -40.4015 -40.4015 -40.3617 -40.3617
   -16.7005 -16.7005 -11.3683 -11.3683 -10.7321 -10.7321 -10.0088 -10.0088
    -7.2462  -7.2462  -6.7151  -6.7151  -6.3280  -6.3280  -5.6664  -5.6664
    -4.1822  -4.1821  -3.5065  -3.5063  -2.3907  -2.3875  -2.1343  -2.1321

          k = 0.2500-0.3756 0.0000 ( 23853 PWs)   bands (ev):

   -66.3535 -66.3535 -66.2993 -66.2993 -40.7868 -40.7868 -40.6870 -40.6870
   -40.5490 -40.5490 -40.4186 -40.4186 -40.3508 -40.3508 -40.2844 -40.2844
   -16.8482 -16.8482 -11.3055 -11.3055 -10.4223 -10.4223 -10.0938 -10.0938
    -7.6219  -7.6219  -6.8996  -6.8996  -6.3723  -6.3723  -5.5294  -5.5294
    -4.6449  -4.6449  -3.5436  -3.5432  -2.8433  -2.8428  -2.4801  -2.4785

          k = 0.2500-0.2603 0.0000 ( 23818 PWs)   bands (ev):

   -66.3772 -66.3772 -66.3173 -66.3173 -40.7785 -40.7785 -40.6239 -40.6239
   -40.4947 -40.4947 -40.3900 -40.3900 -40.2695 -40.2695 -40.1825 -40.1825
   -17.0623 -17.0623 -11.2293 -11.2293 -10.4676 -10.4676  -9.6840  -9.6840
    -8.1770  -8.1770  -6.6400  -6.6400  -6.3008  -6.3008  -5.5004  -5.5004
    -4.8519  -4.8518  -3.8459  -3.8453  -3.6210  -3.6195  -3.4330  -3.4312

          k = 0.2500-0.1449 0.0000 ( 23862 PWs)   bands (ev):

   -66.3985 -66.3985 -66.3339 -66.3339 -40.7923 -40.7923 -40.5235 -40.5235
   -40.4010 -40.4010 -40.3722 -40.3722 -40.2184 -40.2184 -40.1251 -40.1251
   -17.2628 -17.2628 -11.0768 -11.0768 -10.6379 -10.6379  -9.2798  -9.2798
    -8.1269  -8.1269  -6.7653  -6.7653  -6.5172  -6.5172  -5.5196  -5.5196
    -4.8957  -4.8936  -4.3537  -4.3501  -4.2483  -4.2479  -3.0884  -3.0837

          k = 0.2500-0.0296 0.0000 ( 23775 PWs)   bands (ev):

   -66.4096 -66.4096 -66.3426 -66.3426 -40.8055 -40.8055 -40.4526 -40.4526
   -40.3654 -40.3654 -40.3305 -40.3305 -40.1931 -40.1931 -40.1267 -40.1267
   -17.3682 -17.3682 -11.0073 -11.0073 -10.5268 -10.5268  -9.4729  -9.4729
    -7.5577  -7.5577  -7.1808  -7.1808  -6.3797  -6.3797  -5.7565  -5.7565
    -5.3770  -5.3770  -4.6985  -4.6975  -4.2368  -4.2346  -3.7817  -3.7813

          k = 0.2500 0.0857 0.0000 ( 23840 PWs)   bands (ev):

   -66.4063 -66.4063 -66.3400 -66.3400 -40.8010 -40.8010 -40.4791 -40.4791
   -40.3737 -40.3737 -40.3487 -40.3487 -40.2022 -40.2022 -40.1185 -40.1185
   -17.3349 -17.3349 -11.0258 -11.0258 -10.6159 -10.6159  -9.3148  -9.3148
    -7.9004  -7.9004  -6.8503  -6.8503  -6.5917  -6.5917  -5.6211  -5.6211
    -5.1359  -5.1359  -4.5874  -4.5847  -4.2584  -4.2568  -3.6442  -3.6429

          k = 0.3500 0.2584 0.0000 ( 23896 PWs)   bands (ev):

   -66.3601 -66.3601 -66.3042 -66.3042 -40.8220 -40.8220 -40.7398 -40.7398
   -40.5454 -40.5454 -40.3964 -40.3964 -40.2917 -40.2917 -40.1847 -40.1847
   -16.9342 -16.9342 -11.6943 -11.6943 -10.4582 -10.4582  -9.5352  -9.5352
    -8.7478  -8.7478  -6.0269  -6.0269  -5.7787  -5.7787  -4.9764  -4.9764
    -4.1659  -4.1641  -3.7464  -3.7461  -3.1919  -3.1822  -2.5069  -2.4960

          k = 0.3500 0.3737 0.0000 ( 23867 PWs)   bands (ev):

   -66.3447 -66.3447 -66.2927 -66.2927 -40.8327 -40.8327 -40.7544 -40.7544
   -40.5372 -40.5372 -40.4435 -40.4435 -40.3557 -40.3557 -40.2768 -40.2768
   -16.7924 -16.7924 -11.6281 -11.6281 -10.3321 -10.3321 -10.1328 -10.1328
    -8.1913  -8.1913  -6.0340  -6.0340  -5.8654  -5.8654  -5.4539  -5.4539
    -4.1973  -4.1973  -3.5468  -3.5454  -2.6231  -2.6230  -2.2617  -2.2607

          k = 0.3500 0.4890 0.0000 ( 23866 PWs)   bands (ev):

   -66.3332 -66.3332 -66.2843 -66.2843 -40.7758 -40.7758 -40.7077 -40.7077
   -40.5799 -40.5799 -40.5209 -40.5209 -40.4026 -40.4026 -40.3784 -40.3784
   -16.6716 -16.6716 -11.3851 -11.3851 -10.7848 -10.7848  -9.9919  -9.9919
    -7.3175  -7.3175  -6.4032  -6.4032  -6.2732  -6.2732  -5.7160  -5.7160
    -3.9908  -3.9908  -3.6340  -3.6339  -2.3688  -2.3684  -2.2631  -2.2610

          k = 0.3500 0.6043 0.0000 ( 23925 PWs)   bands (ev):

   -66.3302 -66.3302 -66.2822 -66.2822 -40.7304 -40.7304 -40.6827 -40.6827
   -40.6419 -40.6419 -40.5378 -40.5378 -40.4083 -40.4083 -40.4051 -40.4051
   -16.6397 -16.6397 -11.2373 -11.2373 -11.0119 -11.0119  -9.9120  -9.9120
    -6.9118  -6.9118  -6.5444  -6.5444  -6.4754  -6.4754  -5.7772  -5.7772
    -3.8802  -3.8802  -3.7428  -3.7427  -2.4165  -2.4164  -2.3183  -2.3174

          k = 0.3500 0.7197 0.0000 ( 23865 PWs)   bands (ev):

   -66.3369 -66.3369 -66.2871 -66.2871 -40.8179 -40.8179 -40.7460 -40.7460
   -40.5353 -40.5353 -40.4869 -40.4869 -40.3830 -40.3830 -40.3365 -40.3365
   -16.7169 -16.7169 -11.5335 -11.5335 -10.5335 -10.5335 -10.1310 -10.1310
    -7.7896  -7.7896  -6.1913  -6.1913  -6.0604  -6.0604  -5.5977  -5.5977
    -4.0959  -4.0958  -3.5415  -3.5414  -2.4241  -2.4230  -2.1639  -2.1627

          k = 0.3500-0.3182 0.0000 ( 23889 PWs)   bands (ev):

   -66.3507 -66.3507 -66.2972 -66.2972 -40.8383 -40.8383 -40.7628 -40.7628
   -40.5394 -40.5394 -40.4133 -40.4133 -40.3264 -40.3264 -40.2265 -40.2265
   -16.8549 -16.8549 -11.7009 -11.7009 -10.4217 -10.4217  -9.8600  -9.8600
    -8.5350  -8.5350  -5.9595  -5.9595  -5.7456  -5.7456  -5.1732  -5.1732
    -4.2323  -4.2322  -3.6222  -3.6212  -2.9159  -2.9073  -2.4803  -2.4799

          k = 0.3500-0.2029 0.0000 ( 23884 PWs)   bands (ev):

   -66.3661 -66.3661 -66.3088 -66.3088 -40.8046 -40.8046 -40.7152 -40.7152
   -40.5322 -40.5322 -40.3931 -40.3931 -40.2764 -40.2764 -40.1693 -40.1693
   -16.9844 -16.9844 -11.6165 -11.6165 -10.4875 -10.4875  -9.4090  -9.4090
    -8.7602  -8.7602  -6.1872  -6.1872  -5.8885  -5.8885  -4.9916  -4.9916
    -4.1710  -4.1689  -3.8229  -3.8228  -3.3726  -3.3720  -2.8052  -2.8050

          k = 0.3500-0.0876 0.0000 ( 23820 PWs)   bands (ev):

   -66.3773 -66.3773 -66.3174 -66.3174 -40.7784 -40.7784 -40.6233 -40.6233
   -40.4949 -40.4949 -40.3899 -40.3899 -40.2695 -40.2695 -40.1824 -40.1824
   -17.0633 -17.0633 -11.2273 -11.2273 -10.4663 -10.4663  -9.6847  -9.6847
    -8.1750  -8.1750  -6.6378  -6.6378  -6.3030  -6.3030  -5.4991  -5.4991
    -4.8478  -4.8477  -3.8507  -3.8485  -3.6289  -3.6289  -3.4334  -3.4315

          k = 0.3500 0.0277 0.0000 ( 23807 PWs)   bands (ev):

   -66.3802 -66.3802 -66.3196 -66.3196 -40.7749 -40.7749 -40.5859 -40.5859
   -40.4904 -40.4904 -40.3865 -40.3865 -40.2659 -40.2659 -40.1975 -40.1975
   -17.0814 -17.0814 -11.0328 -11.0328 -10.4619 -10.4619  -9.8625  -9.8625
    -7.8110  -7.8110  -7.0667  -7.0667  -6.2111  -6.2111  -5.7369  -5.7369
    -5.0827  -5.0827  -3.8634  -3.8620  -3.5917  -3.5917  -3.5032  -3.5028

          k = 0.3500 0.1431 0.0000 ( 23894 PWs)   bands (ev):

   -66.3737 -66.3737 -66.3145 -66.3145 -40.7874 -40.7874 -40.6688 -40.6688
   -40.5164 -40.5164 -40.3882 -40.3882 -40.2656 -40.2656 -40.1650 -40.1650
   -17.0382 -17.0382 -11.4558 -11.4558 -10.4731 -10.4731  -9.4425  -9.4425
    -8.5404  -8.5404  -6.3635  -6.3635  -6.1439  -6.1439  -5.2595  -5.2595
    -4.4719  -4.4717  -3.8491  -3.8469  -3.5488  -3.5480  -3.2695  -3.2507

          k = 0.4500 0.3157 0.0000 ( 23931 PWs)   bands (ev):

   -66.3447 -66.3447 -66.2927 -66.2927 -40.8974 -40.8974 -40.8150 -40.8150
   -40.5439 -40.5439 -40.4082 -40.4082 -40.3185 -40.3185 -40.2061 -40.2061
   -16.8299 -16.8299 -11.9489 -11.9489 -10.5167 -10.5167  -9.6546  -9.6546
    -8.9646  -8.9646  -5.5683  -5.5683  -5.3053  -5.3053  -4.4611  -4.4611
    -3.8343  -3.8342  -3.6979  -3.6978  -2.6475  -2.6422  -2.4683  -2.4667

          k = 0.4500 0.4311 0.0000 ( 23900 PWs)   bands (ev):

   -66.3396 -66.3396 -66.2890 -66.2890 -40.8547 -40.8547 -40.7759 -40.7759
   -40.5320 -40.5320 -40.4555 -40.4555 -40.3620 -40.3620 -40.2874 -40.2874
   -16.7571 -16.7571 -11.7119 -11.7119 -10.3158 -10.3158 -10.2053 -10.2053
    -8.2537  -8.2537  -5.8240  -5.8240  -5.6606  -5.6606  -5.4601  -5.4601
    -3.9686  -3.9684  -3.6082  -3.6082  -2.4847  -2.4828  -2.2212  -2.2192

          k = 0.4500 0.5464 0.0000 ( 23858 PWs)   bands (ev):

   -66.3367 -66.3367 -66.2868 -66.2868 -40.7862 -40.7862 -40.7062 -40.7062
   -40.5778 -40.5778 -40.4825 -40.4825 -40.4010 -40.4010 -40.3613 -40.3613
   -16.7021 -16.7021 -11.3643 -11.3643 -10.7304 -10.7304 -10.0076 -10.0076
    -7.2420  -7.2420  -6.7155  -6.7155  -6.3295  -6.3295  -5.6669  -5.6669
    -4.1827  -4.1827  -3.5091  -3.5087  -2.3882  -2.3882  -2.1435  -2.1429

          k = 0.4500 0.6617 0.0000 ( 23862 PWs)   bands (ev):

   -66.3370 -66.3370 -66.2871 -66.2871 -40.8176 -40.8176 -40.7455 -40.7455
   -40.5364 -40.5364 -40.4861 -40.4861 -40.3830 -40.3830 -40.3364 -40.3364
   -16.7176 -16.7176 -11.5316 -11.5316 -10.5317 -10.5317 -10.1325 -10.1325
    -7.7892  -7.7892  -6.1884  -6.1884  -6.0603  -6.0603  -5.5971  -5.5971
    -4.0955  -4.0954  -3.5437  -3.5436  -2.4236  -2.4230  -2.1703  -2.1682

          k = 0.4500 0.7770 0.0000 ( 23898 PWs)   bands (ev):

   -66.3404 -66.3404 -66.2896 -66.2896 -40.8874 -40.8874 -40.8107 -40.8107
   -40.5289 -40.5289 -40.4290 -40.4290 -40.3456 -40.3456 -40.2434 -40.2434
   -16.7857 -16.7857 -11.8708 -11.8708 -10.4499 -10.4499  -9.9628  -9.9628
    -8.6618  -8.6618  -5.5972  -5.5972  -5.4099  -5.4099  -4.9774  -4.9774
    -3.8312  -3.8304  -3.6765  -3.6765  -2.5570  -2.5545  -2.3118  -2.3077

          k = 0.4500-0.2609 0.0000 ( 23932 PWs)   bands (ev):

   -66.3457 -66.3457 -66.2935 -66.2935 -40.8947 -40.8947 -40.8176 -40.8176
   -40.5398 -40.5398 -40.4073 -40.4073 -40.3115 -40.3115 -40.1968 -40.1968
   -16.8424 -16.8424 -11.9581 -11.9581 -10.5515 -10.5515  -9.5242  -9.5242
    -9.0983  -9.0983  -5.5987  -5.5987  -5.2931  -5.2931  -4.2004  -4.2004
    -3.9019  -3.9018  -3.7202  -3.7202  -2.7418  -2.7298  -2.5992  -2.5991

          k = 0.4500-0.1456 0.0000 ( 23885 PWs)   bands (ev):

   -66.3507 -66.3507 -66.2972 -66.2972 -40.8381 -40.8381 -40.7624 -40.7624
   -40.5398 -40.5398 -40.4130 -40.4130 -40.3265 -40.3265 -40.2265 -40.2265
   -16.8555 -16.8555 -11.6993 -11.6993 -10.4195 -10.4195  -9.8629  -9.8629
    -8.5334  -8.5334  -5.9572  -5.9572  -5.7455  -5.7455  -5.1703  -5.1703
    -4.2313  -4.2310  -3.6229  -3.6221  -2.9186  -2.9127  -2.4875  -2.4765

          k = 0.4500-0.0302 0.0000 ( 23857 PWs)   bands (ev):

   -66.3537 -66.3537 -66.2994 -66.2994 -40.7864 -40.7864 -40.6860 -40.6860
   -40.5501 -40.5501 -40.4182 -40.4182 -40.3505 -40.3505 -40.2843 -40.2843
   -16.8498 -16.8498 -11.3015 -11.3015 -10.4181 -10.4181 -10.0963 -10.0963
    -7.6199  -7.6199  -6.8966  -6.8966  -6.3745  -6.3745  -5.5263  -5.5263
    -4.6443  -4.6443  -3.5480  -3.5476  -2.8471  -2.8458  -2.4872  -2.4843

          k = 0.4500 0.0851 0.0000 ( 23866 PWs)   bands (ev):

   -66.3534 -66.3534 -66.2992 -66.2992 -40.8052 -40.8052 -40.7175 -40.7175
   -40.5449 -40.5449 -40.4175 -40.4175 -40.3366 -40.3366 -40.2571 -40.2571
   -16.8573 -16.8573 -11.4836 -11.4836 -10.3518 -10.3518 -10.0285 -10.0285
    -8.0943  -8.0943  -6.3936  -6.3936  -6.1251  -6.1251  -5.4669  -5.4669
    -4.4862  -4.4862  -3.5811  -3.5799  -2.8864  -2.8856  -2.4773  -2.4770

          k = 0.4500 0.2004 0.0000 ( 23927 PWs)   bands (ev):

   -66.3499 -66.3499 -66.2966 -66.2966 -40.8696 -40.8696 -40.7895 -40.7895
   -40.5490 -40.5490 -40.4026 -40.4026 -40.3090 -40.3090 -40.1986 -40.1986
   -16.8637 -16.8637 -11.8646 -11.8646 -10.4915 -10.4915  -9.6059  -9.6059
    -8.8969  -8.8969  -5.7410  -5.7410  -5.4612  -5.4612  -4.6787  -4.6786
    -3.9792  -3.9791  -3.6841  -3.6839  -2.8586  -2.8564  -2.4856  -2.4805

     the Fermi energy is    -5.0795 ev

!    total energy              =    -746.10407774 Ry
     total all-electron energy =    -16272.126402 Ry
     estimated scf accuracy    <          1.4E-09 Ry
     smearing contrib. (-TS)   =       0.00014298 Ry
     internal energy E=F+TS    =    -746.10422072 Ry

     The total energy is F=E-TS. E is the sum of the following terms:
     one-electron contribution =    1289.39619066 Ry
     hartree contribution      =    -656.97364943 Ry
     xc contribution           =     -60.73615649 Ry
     ewald contribution        =    -873.88608975 Ry
     one-center paw contrib.   =    -443.93051572 Ry
     solvation energy (RISM)   =       0.02650894 Ry
     level-shifting contrib.   =      -0.00050891 Ry

     convergence has been achieved in 153 iterations

     Writing output data file ./mo2c-nacl.save/
 
     init_run     :      7.01s CPU      7.47s WALL (       1 calls)
     electrons    :    972.03s CPU    988.49s WALL (       1 calls)

     Called by init_run:
     wfcinit      :      2.37s CPU      2.65s WALL (       1 calls)
     potinit      :      4.26s CPU      4.40s WALL (       1 calls)
     hinit0       :      0.25s CPU      0.28s WALL (       1 calls)

     Called by electrons:
     c_bands      :    589.56s CPU    601.68s WALL (     153 calls)
     sum_band     :    113.62s CPU    115.69s WALL (     153 calls)
     v_of_rho     :      1.56s CPU      1.58s WALL (     154 calls)
     newd         :      4.22s CPU      4.25s WALL (     154 calls)
     PAW_pot      :      6.03s CPU      6.08s WALL (     154 calls)
     mix_rho      :      1.62s CPU      1.63s WALL (     153 calls)

     Called by c_bands:
     init_us_2    :      1.25s CPU      1.39s WALL (   15350 calls)
     crmmdiagg    :    313.61s CPU    318.94s WALL (    7650 calls)
     xwfcrot      :    237.46s CPU    242.24s WALL (    7600 calls)
     gsorth       :     34.84s CPU     35.10s WALL (    7650 calls)

     Called by *rmmdiagg:

     Called by xwfcrot:

     Called by gsorth:
     h_psi        :    457.11s CPU    466.55s WALL (   29288 calls)
     s_psi        :      8.96s CPU      9.04s WALL (   29288 calls)

     Called by h_psi:
     h_psi:calbec :     14.65s CPU     14.89s WALL (   29288 calls)
     vloc_psi     :    433.06s CPU    442.02s WALL (   29288 calls)
     add_vuspsi   :      8.16s CPU      8.24s WALL (   29288 calls)

     General routines
     calbec       :     20.39s CPU     20.73s WALL (   36938 calls)
     fft          :      2.57s CPU      2.60s WALL (    3840 calls)
     ffts         :      0.31s CPU      0.31s WALL (    1228 calls)
     fftw         :    493.66s CPU    503.53s WALL ( 3350120 calls)
     interpolate  :      0.54s CPU      0.55s WALL (     616 calls)
 
     Parallel routines
     fft_scatt_xy :     17.30s CPU     17.46s WALL ( 3406860 calls)
     fft_scatt_yz :    278.12s CPU    284.12s WALL ( 3406860 calls)

     RISM routines
     1DRISM_pre   :      0.00s CPU      0.00s WALL (       1 calls)
     1DRISM_run   :     13.53s CPU     13.72s WALL (       1 calls)
     3DRISM_pre   :      0.83s CPU      0.87s WALL (       1 calls)
     3DRISM_run   :    257.56s CPU    259.72s WALL (     154 calls)
     3DRISM_vsol  :      0.14s CPU      0.14s WALL (     154 calls)
 
     PWSCF        :  16m36.57s CPU  16m55.59s WALL

 
   This run was terminated on:  14:53:34  19Aug2025            

=------------------------------------------------------------------------------=
   JOB DONE.
=------------------------------------------------------------------------------=
